
                                 *****************
                                 * O   R   C   A *
                                 *****************

                                            #,                                       
                                            ###                                      
                                            ####                                     
                                            #####                                    
                                            ######                                   
                                           ########,                                 
                                     ,,################,,,,,                         
                               ,,#################################,,                 
                          ,,##########################################,,             
                       ,#########################################, ''#####,          
                    ,#############################################,,   '####,        
                  ,##################################################,,,,####,       
                ,###########''''           ''''###############################       
              ,#####''   ,,,,##########,,,,          '''####'''          '####       
            ,##' ,,,,###########################,,,                        '##       
           ' ,,###''''                  '''############,,,                           
         ,,##''                                '''############,,,,        ,,,,,,###''
      ,#''                                            '''#######################'''  
     '                                                          ''''####''''         
             ,#######,   #######,   ,#######,      ##                                
            ,#'     '#,  ##    ##  ,#'     '#,    #''#        ,####,    ,#,          
            ##       ##  ##   ,#'  ##            #'  '#       #'       ,# #          
            ##       ##  #######   ##           ,######,      #####,      #          
            '#,     ,#'  ##    ##  '#,     ,#' ,#      #,     #,   #      #          
             '#######'   ##     ##  '#######'  #'      '#     '####' #    #          



                #########################################################
                #                        -***-                          #
                #          Department of theory and spectroscopy        #
                #                                                       #
                #                      Frank Neese                      #
                #                                                       #
                #     Directorship, Architecture, Infrastructure        #
                #                    SHARK, DRIVERS                     #
                #        Core code/Algorithms in most modules           #
                #                                                       #
                #        Max Planck Institute fuer Kohlenforschung      #
                #                Kaiser Wilhelm Platz 1                 #
                #                 D-45470 Muelheim/Ruhr                 #
                #                      Germany                          #
                #                                                       #
                #                  All rights reserved                  #
                #                        -***-                          #
                #########################################################


                         Program Version 6.1.0  -  RELEASE   -
                                (GIT: $679e74b$)
                          ($2025-06-10 18:02:51 +0200$)


 With contributions from (in alphabetic order):
[Max-Planck-Institut fuer Kohlenforschung]                               
  Daniel Aravena         : Magnetic Suceptibility                        
  Michael Atanasov       : Ab Initio Ligand Field Theory (pilot matlab implementation)
  Alexander A. Auer      : GIAO ZORA, VPT2 properties, NMR spectrum      
  Ute Becker             : All parallelization in ORCA, NUMFREQ, NUMCALC 
  Giovanni Bistoni       : ED, misc. LED, open-shell LED, HFLD           
  Dmytro Bykov           : pre 5.0 version of the SCF Hessian            
  Marcos Casanova-Páez   : Triplet and SCS-CIS(D). UHF-(DLPNO)-IP/EA/STEOM-CCSD. UHF-CVS-IP/STEOM-CCSD   
  Vijay G. Chilkuri      : MRCI spin determinant printing, contributions to CSF-ICE 
  Pauline Colinet        : FMM embedding                                 
  Dipayan Datta          : RHF DLPNO-CCSD density                        
  Achintya Kumar Dutta   : EOM-CC, STEOM-CC                              
  Nicolas Foglia         : Exact transition moments, OPA infrastructure, MCD improvements    
  Dmitry Ganyushin       : Spin-Orbit,Spin-Spin,Magnetic field MRCI      
  Miquel Garcia-Rates    : C-PCM and meta-GGA Hessian, CCSD/C-PCM, Gaussian charge scheme 
  Tiago L. C. Gouveia    : GS-ROHF, GS-ROCIS                             
  Yang Guo               : DLPNO-NEVPT2, F12-NEVPT2, CIM, IAO-localization        
  Andreas Hansen         : Spin unrestricted coupled pair/coupled cluster methods 
  Ingolf Harden          : AUTO-CI MPn and infrastructure                
  Benjamin Helmich-Paris : MC-RPA, TRAH-(SCF,CASSCF), AVAS, COSX integrals, SCF dyn. polar., MC-PDFT, srDFT 
  Lee Huntington         : MR-EOM, pCC                                   
  Robert Izsak           : Overlap fitted RIJCOSX, COSX-SCS-MP3, EOM     
  Riya Kayal             : Wick's Theorem for AUTO-CI, AUTO-CI UHF-CCSDT 
  Emily Kempfer          : AUTO-CI RHF CISDT and CCSDT, approximate NEVPT4
  Christian Kollmar      : KDIIS, OOCD, Brueckner-CCSD(T), CCSD density, CASPT2, CASPT2-K, improved NEVPT2 
  Axel Koslowski         : Symmetry handling                             
  Simone Kossmann        : meta-GGA functionals, TD-DFT gradient, OOMP2, (MP2 Hessian; deprecated post 5.0) 
  Lucas Lang             : DCDCAS, Hyperfine gauge corrections, ICE-SOC+SSC
  Marvin Lechner         : AUTO-CI (C++ implementation), FIC-MRCC        
  Spencer Leger          : CASSCF response                               
  Dagmar Lenk            : GEPOL surface, SMD, ORCA-2-JSON               
  Dimitrios Liakos       : Extrapolation schemes; Compound Job, Property file
  Dimitrios Manganas     : Further ROCIS development; embedding schemes. LFT, Crystal Embedding 
  Dimitrios Pantazis     : SARC Basis sets                               
  Anastasios Papadopoulos: AUTO-CI, single reference methods and gradients 
  Taras Petrenko         : pre 6.0 DFT Hessian and TD-DFT gradient,  ECA, NRVS 
  Petra Pikulova         : Analytic Raman intensities                    
  Peter Pinski           : DLPNO-MP2, DLPNO-MP2 Gradient                 
  Shashank Vittal Rao    : ES-AILFT, MagRelax                            
  Christoph Reimann      : Effective Core Potentials                     
  Marius Retegan         : Local ZFS, SOC                                
  Christoph Riplinger    : Optimizer, TS searches, QM/MM, DLPNO-CCSD(T), (RO)-DLPNO pert. Triples 
  Michael Roemelt        : Original ROCIS implementation, recursive CI coupling coefficients
  Masaaki Saitow         : Open-shell DLPNO-CCSD energy and density      
  Barbara Sandhoefer     : DKH picture change effects                    
  Yorick L. A. Schmerwitz: GMF and freeze-and-release deltaSCF, NEB S-IDPP initial path                    
  Kantharuban Sivalingam : CASSCF convergence/infrastructure, NEVPT2, NEVPT3, NEVPT4(SD), FIC-MRCI and CEPA variants
  Bernardo de Souza      : ESD, SOC TD-DFT                               
  Georgi L. Stoychev     : AutoAux, RI-MP2 NMR, DLPNO-MP2 response, X2C  
  Van Anh Tran           : RI-MP2 g-tensors                              
  Willem Van den Heuvel  : Paramagnetic NMR                              
  Zikuan Wang            : NOTCH, Electric field optimization            
  Frank Wennmohs         : Technical directorship and infrastructure     
  Hang Xu                : AUTO-CI-Response properties                   
                                                                         
[FACCTs GmbH]                                                            
  Markus Bursch, Nicolas Foglia, Miquel Garcia-Rates, Ingolf Harden, Hagen Neugebauer, Anastasios Papadopoulos, 
  Christoph Riplinger, Bernardo de Souza, Georgi L. Stoychev                                                    
                                                                 
  APM, various basis sets, CI-OPT, improved COSX, DLPNO-Multilevel,           
  DOCKER, DRACO, updates on ESD, Fragmentator, GOAT, IRC, LR-CPCM, L-BFGS, MBIS, meta-GGA TD-DFT gradient, ML-optimized integration grids, 
  MM, NACMEs, nearIR, NEB, NEB-TS, NL-DFT gradient (VV10), 2- and 3-layer-ONIOM, interface openCOSMO-RS, QMMM,   
  Crystal-QMMM, RESP, rigid body optimization, SF, symmetry and pop. for TD-DFT, various functionals, SOLVATOR                                   
                                                                         
[Other institutions]                                                     
  V. Asgeirsson          : NEB                                           
  Christoph Bannwarth    : sTDA-DFT, sTD-DFT, PBEh-3c, B97-3c, D3        
  Giovanni Bistoni       : ETS/NOCV, ADLD/ADEX, COVALED                  
  Martin Brehm           : Molecular dynamics                            
  Ronald Cardenas        : ETS/NOCV                                      
  Martina Colucci        : COVALED                                       
  Sebastian Ehlert       : rSCAN, r2SCAN, r2SCAN-3c, D4, dhf basis sets  
  Marvin Friede          : D4 for Fr, Ra, Ac-Lr                          
  Lars Goerigk           : TD-DFT with DH, B97 family of functionals     
  Stefan Grimme          : VdW corrections, initial TS optimization, DFT functionals, gCP, sTDA/sTD-DF 
  Waldemar Hujo          : DFT-NL                                        
  H. Jonsson             : NEB                                           
  Holger Kruse           : gCP                                           
  Marcel Mueller         : wB97X-3c, vDZP basis set                      
  Hagen Neugebauer       : wr2SCAN, Native XTB                           
  Gianluca Regni         : ADLD/ADEX                                     
  Tobias Risthaus        : pre 6.0 range-separated hybrid DFT and stability analysis
  Lukas Wittmann         : regularized MP2, r2SCAN double-hybrids, wr2SCAN        
                                                                         
We gratefully acknowledge several colleagues who have allowed us to      
interface, adapt or use parts of their codes:                            
  Ed Valeev, F. Pavosevic, A. Kumar             : LibInt (2-el integral package), F12 methods 
  Garnet Chan, S. Sharma, J. Yang, R. Olivares  : DMRG                   
  Ulf Ekstrom                                   : XCFun DFT Library      
  Mihaly Kallay                                 : mrcc  (arbitrary order and MRCC methods)
  Frank Weinhold                                : gennbo (NPA and NBO analysis)           
  Simon Mueller                                 : openCOSMO-RS                            
  Christopher J. Cramer and Donald G. Truhlar   : smd solvation model                     
  S Lehtola, MJT Oliveira, MAL Marques          : LibXC Library                           
  Liviu Ungur et al                             : ANISO software                          


 Your calculation uses the libint2 library for the computation of 2-el integrals
 For citations please refer to: http://libint.valeyev.net

 Your ORCA version has been built with support for libXC version: 7.0.0
 For citations please refer to: https://libxc.gitlab.io

 This ORCA versions uses:
   CBLAS   interface :  Fast vector & matrix operations
   LAPACKE interface :  Fast linear algebra routines
   SCALAPACK package :  Parallel linear algebra routines
   Shared memory     :  Shared parallel matrices
   BLAS/LAPACK       :  OpenBLAS 0.3.29  USE64BITINT DYNAMIC_ARCH NO_AFFINITY Cooperlake SINGLE_THREADED
        Core in use  :  Cooperlake
   Copyright (c) 2011-2014, The OpenBLAS Project


  ***********************************
  * Starting time: Wed Oct 22 11:15:10 2025
  * Host name:     rc31716
  * Process ID:    2495874
  * Working dir.:  /scratch/bourrete/furan_vpt2_3331239
  ***********************************

NOTE: MaxCore=750 MB was set to SCF,MP2,MDCI,CIPSI,MRCI,RASCI and CIS
      => If you want to overwrite this, your respective input block should be placed after the MaxCore statement


***************************************
The coordinates will be read from file: OPT_furan_vpt2.xyz
***************************************


Warning: RI is on but no J-basis has been assigned. Assigning Def2/J (nothing to worry about!)
================================================================================

----- Orbital basis set information -----
Your calculation utilizes the basis: def2-SVP
   F. Weigend and R. Ahlrichs, Phys. Chem. Chem. Phys. 7, 3297 (2005).

----- AuxJ basis set information -----
Your calculation utilizes the auxiliary basis: def2/J
   H-Rn: F. Weigend, Phys. Chem. Chem. Phys. 8, 1057 (2006).
   Fr-Lr: K. Eichkorn, F. Weigend, O. Treutler, R. Ahlrichs; Theor. Chem. Acc. 97, 119 (1997).

================================================================================
                                        WARNINGS
                       Please study these warnings very carefully!
================================================================================


WARNING: Instead of the default, updated atomic masses from 2016 are used.


================================================================================
                                       INPUT FILE
================================================================================
NAME = VPT2_furan_vpt2.inp
|  1> ! B3LYP/G def2-SVP  DefGrid3 ExtremeSCF VPT2
|  2> # DFT functional:   B3LYP/G
|  3> # Basis:            def2-SVP
|  4> %maxcore 750
|  5> %pal nprocs 21
|  6> end
|  7> %base "VPT2_furan_vpt2"
|  8> %scf
|  9>       Guess         MORead
| 10>       MOInp         "OPT_furan_vpt2.gbw"
| 11> end
| 12> %vpt2
| 13>     VPT2              On    # do a VPT2 analysis, same as !VPT2 (see above)
| 14>     AnharmDisp        0.05  # anharmonic displacement factor, default is 0.05
| 15>     HessianCutoff     1e-12 # cut-off for Hessian elements, default is 1e-11
| 16>     PrintLevel        4     # VPT2 print level [1, 2, 3, 4]
| 17>     MinimiseOrcaPrint False # Minimises the remaining ORCA output  
| 18> end
| 19> %method
| 20>       Z_Tol           1e-14 # Should be at least 1e-13 or smaller
| 21> end
| 22> #%output
| 23> #      Pickettname     "pickett_VPT2_furan_vpt2.txt"
| 24> #end
| 25> *xyzfile 0 1 OPT_furan_vpt2.xyz
| 26> 
| 27>                          ****END OF INPUT****
================================================================================

numfreqdx 1 AnHess 0 RunTyp 62349632 
                     *******************************
                     *              VPT2           *
                     *******************************

    Basename = VPT2_furan_vpt2
    Pickettname = 
    MinimiseOrcaOutput = false
    SymThresh = 1.00e-04
    AnharmDisp = 0.050
    PropDisp = 0.050
    HessianCutoff = 1.00e-12
    print_level = 4
    AvgProp = 0
    SkipModes = 0
    CubicXTB = 0


Initial geometry in Angstroem
Rotating Geometry into its principle axis frame!
 -----------------------------------------------
| PLEASE NOTE :                                 |
| In contrast to most parts of ORCA, which keep |
| the orientation of a system from the input,   |
| the VPT2 module will rotate the system into   |
| the principlal axes frame. This influences    |
| all directional properties like dipole        |
| or transition dipole components. Please check |
| the geometry output below for the new coords !|
 -----------------------------------------------
Debug: shifting the centre of mass to [0, 0, 0]

p = 1.268e-12 ...Diagonalising
Setting up the geometry class.
New geometry in Angstroem
---------------------------------
CARTESIAN COORDINATES (ANGSTROEM)
---------------------------------
  C      0.989159   -0.718056   -0.000000
  C     -0.323982   -1.093038    0.000000
  O     -1.127485    0.000000    0.000000
  C     -0.323982    1.093038   -0.000000
  C      0.989159    0.718056    0.000000
  H      1.852848   -1.379866   -0.000000
  H     -0.826004   -2.057205    0.000000
  H     -0.826004    2.057205   -0.000000
  H      1.852848    1.379866    0.000000

----------------------------
CARTESIAN COORDINATES (A.U.)
----------------------------
  NO LB      ZA    FRAG     MASS         X           Y           Z
   0 C     6.0000    0    12.000    1.869240   -1.356929   -0.000000
   1 C     6.0000    0    12.000   -0.612237   -2.065542    0.000000
   2 O     8.0000    0    15.995   -2.130637    0.000000    0.000000
   3 C     6.0000    0    12.000   -0.612237    2.065542   -0.000000
   4 C     6.0000    0    12.000    1.869240    1.356929    0.000000
   5 H     1.0000    0     1.008    3.501374   -2.607569   -0.000000
   6 H     1.0000    0     1.008   -1.560921   -3.887554    0.000000
   7 H     1.0000    0     1.008   -1.560920    3.887554   -0.000000
   8 H     1.0000    0     1.008    3.501375    2.607569    0.000000



           ************************************************************
           *        Program running with 21 parallel MPI-processes    *
           *              working on a common directory               *
           ************************************************************
------------------------------------------------------------------------------
                   ___                                                        
                  /   \      - P O W E R E D   B Y -                         
                 /     \                                                     
                 |  |  |   _    _      __       _____    __    __             
                 |  |  |  | |  | |    /  \     |  _  \  |  |  /  |          
                  \  \/   | |  | |   /    \    | | | |  |  | /  /          
                 / \  \   | |__| |  /  /\  \   | |_| |  |  |/  /          
                |  |  |   |  __  | /  /__\  \  |    /   |      \           
                |  |  |   | |  | | |   __   |  |    \   |  |\   \          
                \     /   | |  | | |  |  |  |  | |\  \  |  | \   \       
                 \___/    |_|  |_| |__|  |__|  |_| \__\ |__|  \__/        
                                                                              
                      - O R C A' S   B I G   F R I E N D -                    
                                      &                                       
                       - I N T E G R A L  F E E D E R -                       
                                                                              
 v1 FN, 2020, v2 2021, v3 2022-2024                                           
------------------------------------------------------------------------------


----------------------
SHARK INTEGRAL PACKAGE
----------------------

Number of atoms                             ...      9
Number of basis functions                   ...     90
Number of shells                            ...     42
Maximum angular momentum                    ...      2
Integral batch strategy                     ... SHARK/LIBINT Hybrid
RI-J (if used) integral strategy            ... SPLIT-RIJ (Revised 2003 algorithm where possible)
Printlevel                                  ...      1
Contraction scheme used                     ... SEGMENTED contraction
Prescreening option                         ... SCHWARTZ
   Thresh                                   ... 3.000e-16
   Tcut                                     ... 3.000e-16
   Tpresel                                  ... 3.000e-16 
Coulomb Range Separation                    ... NOT USED
Exchange Range Separation                   ... NOT USED
Multipole approximations                    ... NOT USED
Finite Nucleus Model                        ... NOT USED
CABS basis                                  ... NOT available
Auxiliary Coulomb fitting basis             ... AVAILABLE
   # of basis functions in Aux-J            ...    289
   # of shells in Aux-J                     ...     95
   Maximum angular momentum in Aux-J        ...      4
Auxiliary J/K fitting basis                 ... NOT available
Auxiliary Correlation fitting basis         ... NOT available
Auxiliary 'external' fitting basis          ... NOT available

Checking pre-screening integrals            ... done (  0.0 sec) Dimension = 42
   => SHARK Basis and OBASIS are compatible. Storing Pre-screening
Shell pair information
Shell pair cut-off parameter TPreSel        ...   3.0e-16
Total number of shell pairs                 ...       903
Shell pairs after pre-screening             ...       901
Total number of primitive shell pairs       ...      3317
Primitive shell pairs kept                  ...      2805
          la=0 lb=0:    274 shell pairs
          la=1 lb=0:    322 shell pairs
          la=1 lb=1:    105 shell pairs
          la=2 lb=0:    115 shell pairs
          la=2 lb=1:     70 shell pairs
          la=2 lb=2:     15 shell pairs

Checking whether 4 symmetric matrices of dimension 90 fit in memory
:Max Core in MB      =    750.00
 MB in use           =      4.48
 MB left             =    745.52
 MB needed           =      0.12
 Data fit in memory  = YES
Calculating RI/J V-Matrix + Cholesky decomp.... done (  0.0 sec)
Calculating Nuclear repulsion               ... done (  0.0 sec) ENN=    160.700469430652 Eh

Diagonalization of the overlap matrix:
Smallest eigenvalue                        ... 8.056e-04
Time for diagonalization                   ...    0.001 sec
Threshold for overlap eigenvalues          ... 1.000e-07
Number of eigenvalues below threshold      ... 0
Time for construction of square roots      ...    0.002 sec
Total time needed                          ...    0.005 sec

-------------------
DFT GRID GENERATION
-------------------

General Integration Accuracy     IntAcc      ... 4.959
Radial Grid Type                 RadialGrid  ... OptM3 with GC (2021)
Angular Grid (max. ang.)         AngularGrid ... 6 (Lebedev-590)
Angular grid pruning method      GridPruning ... 4 (adaptive)
Weight generation scheme         WeightScheme... mBecke (2022)
Basis function cutoff            BFCut       ... 3.0000e-16
Integration weight cutoff        WCut        ... 1.0000e-14
Partially contracted basis set               ... off
Rotationally invariant grid construction     ... off
Angular grids for H and He will be reduced by one unit

Total number of grid points                  ...   107386
Total number of batches                      ...     1685
Average number of points per batch           ...       63
Average number of grid points per atom       ...    11932

--------------------
COSX GRID GENERATION
--------------------

GRIDX 1
-------
General Integration Accuracy     IntAcc      ... 4.020
Radial Grid Type                 RadialGrid  ... OptM3 with GC (2021)
Angular Grid (max. ang.)         AngularGrid ... 2 (Lebedev-110)
Angular grid pruning method      GridPruning ... 4 (adaptive)
Weight generation scheme         WeightScheme... mBecke (2022)
Basis function cutoff            BFCut       ... 3.0000e-16
Integration weight cutoff        WCut        ... 1.0000e-14
Partially contracted basis set               ... on
Rotationally invariant grid construction     ... off
Angular grids for H and He will be reduced by one unit

Total number of grid points                  ...    12275
Total number of batches                      ...      102
Average number of points per batch           ...      120
Average number of grid points per atom       ...     1364
UseSFitting                                  ... on

GRIDX 2
-------
General Integration Accuracy     IntAcc      ... 4.338
Radial Grid Type                 RadialGrid  ... OptM3 with GC (2021)
Angular Grid (max. ang.)         AngularGrid ... 3 (Lebedev-194)
Angular grid pruning method      GridPruning ... 4 (adaptive)
Weight generation scheme         WeightScheme... mBecke (2022)
Basis function cutoff            BFCut       ... 3.0000e-16
Integration weight cutoff        WCut        ... 1.0000e-14
Partially contracted basis set               ... on
Rotationally invariant grid construction     ... off
Angular grids for H and He will be reduced by one unit

Total number of grid points                  ...    27100
Total number of batches                      ...      216
Average number of points per batch           ...      125
Average number of grid points per atom       ...     3011
UseSFitting                                  ... on

GRIDX 3
-------
General Integration Accuracy     IntAcc      ... 4.871
Radial Grid Type                 RadialGrid  ... OptM3 with GC (2021)
Angular Grid (max. ang.)         AngularGrid ... 4 (Lebedev-302)
Angular grid pruning method      GridPruning ... 4 (adaptive)
Weight generation scheme         WeightScheme... mBecke (2022)
Basis function cutoff            BFCut       ... 3.0000e-16
Integration weight cutoff        WCut        ... 1.0000e-14
Partially contracted basis set               ... on
Rotationally invariant grid construction     ... off
Angular grids for H and He will be reduced by one unit

Total number of grid points                  ...    51376
Total number of batches                      ...      407
Average number of points per batch           ...      126
Average number of grid points per atom       ...     5708
UseSFitting                                  ... on
Grids setup in   1.1 sec
Initializing property integral containers    ... done (  0.0 sec)

SHARK setup successfully completed in   1.2 seconds

Maximum memory used throughout the entire STARTUP-calculation: 23.7 MB


           ************************************************************
           *        Program running with 21 parallel MPI-processes    *
           *              working on a common directory               *
           ************************************************************
Occupation numbers will be reassigned to an Aufbau configuration
             **** ENERGY FILE WAS UPDATED (VPT2_furan_vpt2.en.tmp) ****
Finished Guess after   2.0 sec
Maximum memory used throughout the entire GUESS-calculation: 6.7 MB


           ************************************************************
           *        Program running with 21 parallel MPI-processes    *
           *              working on a common directory               *
           ************************************************************
----------------------------------------D-I-I-S--------------------------------------------
Iteration    Energy (Eh)           Delta-E    RMSDP     MaxDP     DIISErr   Damp  Time(sec)
-------------------------------------------------------------------------------------------
               ***  Starting incremental Fock matrix formation  ***
    1    -223.8485669044971758     0.00e+00  1.12e-01  2.91e-01  4.14e-01  0.700   0.2
Warning: op=0 Small HOMO/LUMO gap (   0.077) - skipping pre-diagonalization
         Will do a full diagonalization
    2    -225.5007944081349649    -1.65e+00  8.57e-02  1.98e-01  2.76e-01  0.700   0.2
                               ***Turning on AO-DIIS***
    3    -226.7294691760031640    -1.23e+00  6.24e-02  1.60e-01  1.99e-01  0.700   0.2
    4    -227.6217099782249136    -8.92e-01  4.47e-02  1.21e-01  1.43e-01  0.700   0.2
    5    -228.2704832448600598    -6.49e-01  3.19e-02  8.67e-02  1.01e-01  0.700   0.2
    6    -228.7364489964816983    -4.66e-01  2.26e-02  6.12e-02  7.13e-02  0.700   0.2
    7    -229.0678624076449239    -3.31e-01  5.32e-02  1.46e-01  4.99e-02  0.000   0.2
    8    -229.8559996591878019    -7.88e-01  2.40e-03  1.43e-02  1.04e-02  0.000   0.2
    9    -229.8561615882253193    -1.62e-04  9.90e-04  5.36e-03  9.94e-03  0.000   0.1
                              *** Initializing SOSCF ***
---------------------------------------S-O-S-C-F--------------------------------------
Iteration    Energy (Eh)           Delta-E    RMSDP     MaxDP     MaxGrad    Time(sec)
--------------------------------------------------------------------------------------
   10    -229.8563194109599692    -1.58e-04  4.62e-04  1.37e-03  2.25e-03     0.2
               *** Restarting incremental Fock matrix formation ***
   11    -229.8563187950993836     6.16e-07  4.44e-04  1.35e-03  6.64e-04     0.2
   12    -229.8563205375503742    -1.74e-06  2.71e-04  1.39e-03  7.55e-04     0.2
   13    -229.8563242021697022    -3.66e-06  1.19e-04  3.73e-04  2.69e-04     0.2
   14    -229.8563245333477596    -3.31e-07  5.23e-05  2.67e-04  6.52e-05     0.2
   15    -229.8563246026881473    -6.93e-08  3.40e-05  1.26e-04  5.33e-05     0.2
   16    -229.8563246409567853    -3.83e-08  1.18e-05  4.56e-05  1.30e-05     0.2
   17    -229.8563246429756930    -2.02e-09  6.77e-06  3.18e-05  1.08e-05     0.2
   18    -229.8563246456032800    -2.63e-09  2.76e-06  1.01e-05  2.93e-06     0.2
   19    -229.8563246455906608     1.26e-11  1.52e-06  4.45e-06  2.59e-06     0.2
   20    -229.8563246457868274    -1.96e-10  3.92e-07  1.15e-06  3.83e-07     0.2
   21    -229.8563246457875664    -7.39e-13  1.83e-07  6.52e-07  4.69e-07     0.2
   22    -229.8563246457909202    -3.35e-12  6.78e-08  1.97e-07  5.30e-08     0.2
   23    -229.8563246457904086     5.12e-13  2.46e-08  6.40e-08  2.85e-08     0.2
   24    -229.8563246457906928    -2.84e-13  1.73e-09  7.22e-09  1.57e-09     0.2
   25    -229.8563246457907496    -5.68e-14  0.00e+00  0.00e+00  8.84e-10     0.2
                           ***RMSP convergence achieved***
                           ***MAXP convergence achieved***
                       ***Gradient convergence achieved***
                    ***Orbital Rotation convergence achieved***
   26    -229.8563246457907496     0.00e+00  0.00e+00  0.00e+00  8.84e-10     0.1
                          ***Energy convergence achieved***

               *****************************************************
               *                     SUCCESS                       *
               *           SCF CONVERGED AFTER  26 CYCLES          *
               *****************************************************

Recomputing exchange energy using gridx3       ... done (    0.121 sec)
Old exchange energy                            :     -6.059790653 Eh
New exchange energy                            :     -6.059790345 Eh
Exchange energy change after final integration :      0.000000308 Eh
Total energy after final integration           :   -229.856324338 Eh
             **** ENERGY FILE WAS UPDATED (VPT2_furan_vpt2.en.tmp) ****

----------------
TOTAL SCF ENERGY
----------------

Total Energy       :       -229.85632433809661 Eh           -6254.70857 eV

Components:
Nuclear Repulsion  :        160.70046943065174 Eh            4372.88209 eV
Electronic Energy  :       -390.55679407644249 Eh          -10627.59066 eV
One Electron Energy:       -628.69945892761325 Eh          -17107.78202 eV
Two Electron Energy:        238.14266485117076 Eh            6480.19136 eV

Virial components:
Potential Energy   :       -457.44390597660220 Eh          -12447.68151 eV
Kinetic Energy     :        227.58758163850555 Eh            6192.97294 eV
Virial Ratio       :          2.00996865770644

DFT components:
N(Alpha)           :       17.999999474769 electrons
N(Beta)            :       17.999999474769 electrons
N(Total)           :       35.999998949538 electrons
E(X)               :      -24.095554564151 Eh       
E(C)               :       -1.571472013696 Eh       
E(XC)              :      -25.667026577847 Eh       

---------------
SCF CONVERGENCE
---------------

  Last Energy change         ...    0.0000e+00  Tolerance :   1.0000e-14
  Last MAX-Density change    ...    0.0000e+00  Tolerance :   1.0000e-14
  Last RMS-Density change    ...    0.0000e+00  Tolerance :   1.0000e-14
  Last DIIS Error            ...    2.2491e-03  Tolerance :   1.0000e-14
  Last Orbital Gradient      ...    8.8373e-10  Tolerance :   1.0000e-09
  Last Orbital Rotation      ...    0.0000e+00  Tolerance :   1.0000e-09


----------------
ORBITAL ENERGIES
----------------

  NO   OCC          E(Eh)            E(eV) 
   0   2.0000     -19.200424      -522.4701 
   1   2.0000     -10.235818      -278.5308 
   2   2.0000     -10.235811      -278.5306 
   3   2.0000     -10.187969      -277.2287 
   4   2.0000     -10.187780      -277.2236 
   5   2.0000      -1.103628       -30.0313 
   6   2.0000      -0.790639       -21.5144 
   7   2.0000      -0.739622       -20.1261 
   8   2.0000      -0.597042       -16.2463 
   9   2.0000      -0.562637       -15.3101 
  10   2.0000      -0.540019       -14.6947 
  11   2.0000      -0.454077       -12.3561 
  12   2.0000      -0.446677       -12.1547 
  13   2.0000      -0.411265       -11.1911 
  14   2.0000      -0.400524       -10.8988 
  15   2.0000      -0.372723       -10.1423 
  16   2.0000      -0.282743        -7.6938 
  17   2.0000      -0.234060        -6.3691 
  18   0.0000       0.008340         0.2269 
  19   0.0000       0.063819         1.7366 
  20   0.0000       0.079309         2.1581 
  21   0.0000       0.109519         2.9802 
  22   0.0000       0.110899         3.0177 
  23   0.0000       0.125111         3.4044 
  24   0.0000       0.167340         4.5536 
  25   0.0000       0.197694         5.3795 
  26   0.0000       0.276584         7.5262 
  27   0.0000       0.346398         9.4260 
  28   0.0000       0.353115         9.6088 
*Only the first 10 virtual orbitals were printed.
Total SCF time: 0 days 0 hours 0 min 8 sec 
Finished LeanSCF after  17.5 sec

Maximum memory used throughout the entire LEANSCF-calculation: 7.8 MB


           ************************************************************
           *        Program running with 21 parallel MPI-processes    *
           *              working on a common directory               *
           ************************************************************

------------------------------------------------------------------------------
                              ORCA PROPERTY CALCULATIONS
------------------------------------------------------------------------------

GBWName                                 ... VPT2_furan_vpt2.gbw
Number of atoms                         ...      9
Number of basis functions               ...     90
Max core memory                         ...    750 MB

Electric properties:
Dipole moment                           ... YES
Quadrupole moment                       ...  NO
Static polarizability (Dipole/Dipole)   ...  NO
Static polarizability (Dipole/Quad.)    ...  NO
Static polarizability (Quad./Quad.)     ...  NO
Static polarizability (Velocity)        ...  NO
Static hyperpolarizability              ...  NO

Atomic electric properties:
Dipole moment                           ...  NO
Quadrupole moment                       ...  NO
Static polarizability                   ...  NO

Choice of electric origin               ... Center of mass
Position of electric origin             ...     0.000000     0.000000     0.000000

General magnetic properties:
Magnetizability                         ...  NO

EPR properties:
g-Tensor (aka g-matrix)                 ...  NO
Zero-Field splitting spin-orbit         ...  NO
Zero-field splitting spin-spin          ...  NO
Hyperfine couplings                     ...  NO (   0 nuclei)
Quadrupole couplings                    ...  NO (   0 nuclei)
Contact density                         ...  NO (   0 nuclei)

NMR properties:
Chemical shifts                         ...  NO (   0 nuclei)
Spin-rotation constants                 ...  NO (   0 nuclei)
Spin-spin couplings                     ...  NO (   0 nuclei,    0 pairs)

Choice of magnetic origin               ... GIAO
Position of magnetic origin             ...     0.000000     0.000000     0.000000

Properties with geometric perturbations:
SCF Hessian                             ...  NO
IR spectrum                             ...  NO
VCD spectrum                            ...  NO
X-ray spectroscopy properties:
SCF XES/XAS/RIXS spectra                ...  NO

SCF SOC stabilization energy            ...  NO
Diagonal Born-Oppenheimer correction    ...  NO

-------------
DIPOLE MOMENT
-------------

Method             : SCF
Type of density    : Electron Density
Multiplicity       :   1
Irrep              :   0
Energy             :  -229.8563243380966128 Eh
Basis              : AO
                                X                 Y                 Z
Electronic contribution:     -1.703900021       0.000000008       0.000000049
Nuclear contribution   :      1.919852333      -0.000000020      -0.000000086
                        -----------------------------------------
Total Dipole Moment    :      0.215952312      -0.000000012      -0.000000038
                        -----------------------------------------
Magnitude (a.u.)       :      0.215952312
Magnitude (Debye)      :      0.548907154



--------------------
Rotational spectrum 
--------------------
 
Rotational constants in cm-1:             0.315589             0.308580             0.156023 
Rotational constants in MHz :          9461.133439          9250.986373          4677.439937 

Dipole components along the rotational axes: 
x,y,z [a.u.] :    -0.215952     0.000000    -0.000000 
x,y,z [Debye]:    -0.548907     0.000000    -0.000000 

 

Dipole moment calculation done in   1.8 sec 

Maximum memory used throughout the entire PROP-calculation: 4.7 MB
 > Obtaining the initial Hessian.
calling ORCA analytical Hessian for initial Hessian 
VPT2 initial Hessian finished in    22.386361 seconds 
VPT2 initial property finished in     0.000000 seconds 
============================= 
Reading Hessian VPT2_furan_vpt2.hess 
Reading dipole derivatives from the VPT2_furan_vpt2.hess file.
Symmetrise the Hessian.
Calculate the harmonic frequencies.
Calculate the harmonic intensities.
  Mass-weight the dipole derivatives.
  Calculate the normal coordinate derivatives.
  Sum up the intensities.
-----------------------------------------------------------------
                         IR Intensities                      
-----------------------------------------------------------------
Mode freq     Int          T2   (      Tx       Ty       Tz     )  
     cm-1    km/mol        a.u.                                 
----------------------------------------------------------------
0   -5.15   -nan       -nan (      -nan       -nan       -nan)
1   -0.81   -nan       -nan (      -nan       -nan       -nan)
2   -0.01   -nan       -nan (      -nan       -nan       -nan)
3    0.00  0.000   0.000000 ( -0.000000  -0.000000   0.000008)
4    1.54  0.010   0.000389 (  0.000000   0.019721   0.000001)
5    6.48  0.000   0.000000 (  0.000000  -0.000000   0.000022)
6  616.27  0.000   0.000000 (  0.000000   0.000000   0.000000)
7  631.01 21.056   0.002061 (  0.000000   0.000000  -0.045394)
8  746.80  0.000   0.000000 (  0.000000  -0.000000   0.000000)
9  759.74 80.449   0.006539 ( -0.000000   0.000000  -0.080863)
10  866.13  0.005   0.000000 ( -0.000000   0.000000   0.000619)
11  887.38 13.955   0.000971 ( -0.031162  -0.000000  -0.000000)
12  888.78  0.241   0.000017 ( -0.000002   0.004094   0.000000)
13  908.03  0.000   0.000000 ( -0.000000  -0.000000  -0.000000)
14  1010.61 37.955   0.002319 (  0.048157   0.000000  -0.000000)
15  1058.49  3.501   0.000204 (  0.000000  -0.014292  -0.000000)
16  1101.24 16.178   0.000907 (  0.030119  -0.000000  -0.000000)
17  1164.82  1.405   0.000074 ( -0.008630   0.000000  -0.000000)
18  1226.30 16.929   0.000852 (  0.000000   0.029197   0.000000)
19  1282.88  0.437   0.000021 (  0.000000   0.004586  -0.000000)
20  1426.77  2.512   0.000109 (  0.010427  -0.000000   0.000000)
21  1520.75 19.842   0.000806 ( -0.028385  -0.000000  -0.000000)
22  1604.77  0.664   0.000026 ( -0.000000  -0.005055   0.000000)
23  3245.23  1.868   0.000036 ( -0.000000  -0.005962  -0.000000)
24  3255.85  0.043   0.000001 (  0.000901   0.000000   0.000000)
25  3276.80  0.207   0.000004 ( -0.000000  -0.001977   0.000000)
26  3283.17  0.008   0.000000 (  0.000387  -0.000000  -0.000000)
Calculate the dimensionless normal coordinates Q.
Generate three Coriolis zeta matrices.
Printing detailed Hessian information: 

Hessian : 
                  0          1          2          3          4          5    
      0       0.837509  -0.111721  -0.000000  -0.407264  -0.095416   0.000000
      1      -0.111721   0.624768   0.000000  -0.082649  -0.123133   0.000000
      2      -0.000000   0.000000   0.121384   0.000000   0.000000  -0.065528
      3      -0.407264  -0.082649   0.000000   0.728094   0.174403  -0.000000
      4      -0.095416  -0.123133   0.000000   0.174403   0.752319  -0.000000
      5       0.000000   0.000000  -0.065528  -0.000000  -0.000000   0.124443
      6      -0.078966   0.006450  -0.000000  -0.166753   0.066081   0.000000
      7       0.052331  -0.023340  -0.000000   0.109729  -0.197520  -0.000000
      8       0.000000   0.000000   0.013859   0.000000  -0.000000  -0.066956
      9      -0.000273   0.076376  -0.000000  -0.010906  -0.014006   0.000000
     10       0.012677  -0.030721   0.000000   0.014005  -0.118972   0.000000
     11       0.000000  -0.000000   0.012010  -0.000000   0.000000   0.015529
     12      -0.109366  -0.016699   0.000000  -0.000273  -0.012677  -0.000000
     13       0.016699  -0.279370  -0.000000  -0.076376  -0.030721  -0.000000
     14      -0.000000  -0.000000  -0.059436  -0.000000   0.000000   0.012010
     15      -0.247063   0.143720   0.000000  -0.007726   0.019793  -0.000000
     16       0.146131  -0.166549  -0.000000  -0.007869   0.010144   0.000000
     17       0.000000  -0.000000  -0.029985   0.000000  -0.000000  -0.001100
     18       0.002668  -0.021196  -0.000000  -0.130350  -0.138123   0.000000
     19       0.001835   0.002997  -0.000000  -0.127110  -0.286304   0.000000
     20      -0.000000   0.000000   0.003014   0.000000  -0.000000  -0.024817
     21      -0.005065   0.001144  -0.000000  -0.003695  -0.003165   0.000000
     22       0.000226   0.000806   0.000000  -0.005029   0.000648   0.000000
     23      -0.000000  -0.000000   0.005090   0.000000  -0.000000   0.002804
     24       0.007820   0.004572   0.000000  -0.001127   0.003100  -0.000000
     25      -0.022760  -0.005457   0.000000   0.000906  -0.006461  -0.000000
     26      -0.000000  -0.000000  -0.000409   0.000000  -0.000000   0.003615
                  6          7          8          9         10         11    
      0      -0.078966   0.052331   0.000000  -0.000273   0.012677   0.000000
      1       0.006450  -0.023340   0.000000   0.076376  -0.030721  -0.000000
      2      -0.000000  -0.000000   0.013859  -0.000000   0.000000   0.012010
      3      -0.166753   0.109729   0.000000  -0.010906   0.014005  -0.000000
      4       0.066081  -0.197520  -0.000000  -0.014006  -0.118972   0.000000
      5       0.000000  -0.000000  -0.066956   0.000000   0.000000   0.015529
      6       0.476356   0.000000  -0.000000  -0.166753  -0.066081   0.000000
      7       0.000000   0.489463  -0.000000  -0.109730  -0.197521   0.000000
      8      -0.000000  -0.000000   0.099787   0.000000   0.000000  -0.066955
      9      -0.166753  -0.109730   0.000000   0.728094  -0.174403   0.000000
     10      -0.066081  -0.197521   0.000000  -0.174403   0.752319  -0.000000
     11       0.000000   0.000000  -0.066955   0.000000  -0.000000   0.124443
     12      -0.078966  -0.052332  -0.000000  -0.407264   0.095416  -0.000000
     13      -0.006450  -0.023340  -0.000000   0.082649  -0.123133   0.000000
     14       0.000000  -0.000000   0.013858  -0.000000   0.000000  -0.065528
     15      -0.004719   0.000742   0.000000  -0.001127  -0.003100   0.000000
     16      -0.004484   0.001645  -0.000000  -0.000906  -0.006461  -0.000000
     17      -0.000000   0.000000   0.008761  -0.000000  -0.000000   0.003615
     18       0.012260   0.025461  -0.000000  -0.003695   0.003165   0.000000
     19      -0.009781  -0.025516   0.000000   0.005029   0.000648  -0.000000
     20      -0.000000  -0.000000  -0.005558   0.000000   0.000000   0.002804
     21       0.012260  -0.025461   0.000000  -0.130350   0.138123  -0.000000
     22       0.009781  -0.025516  -0.000000   0.127110  -0.286304   0.000000
     23      -0.000000   0.000000  -0.005558  -0.000000   0.000000  -0.024817
     24      -0.004719  -0.000742  -0.000000  -0.007726  -0.019793   0.000000
     25       0.004484   0.001645  -0.000000   0.007869   0.010144   0.000000
     26       0.000000   0.000000   0.008761  -0.000000  -0.000000  -0.001100
                 12         13         14         15         16         17    
      0      -0.109366   0.016699  -0.000000  -0.247063   0.146131   0.000000
      1      -0.016699  -0.279370  -0.000000   0.143720  -0.166549  -0.000000
      2       0.000000  -0.000000  -0.059436   0.000000  -0.000000  -0.029985
      3      -0.000273  -0.076376  -0.000000  -0.007726  -0.007869   0.000000
      4      -0.012677  -0.030721   0.000000   0.019793   0.010144  -0.000000
      5      -0.000000  -0.000000   0.012010  -0.000000   0.000000  -0.001100
      6      -0.078966  -0.006450   0.000000  -0.004719  -0.004484  -0.000000
      7      -0.052332  -0.023340  -0.000000   0.000742   0.001645   0.000000
      8      -0.000000  -0.000000   0.013858   0.000000  -0.000000   0.008761
      9      -0.407264   0.082649  -0.000000  -0.001127  -0.000906  -0.000000
     10       0.095416  -0.123133   0.000000  -0.003100  -0.006461  -0.000000
     11      -0.000000   0.000000  -0.065528   0.000000  -0.000000   0.003615
     12       0.837509   0.111720   0.000000   0.007820   0.022760   0.000000
     13       0.111720   0.624768   0.000000  -0.004572  -0.005457   0.000000
     14       0.000000   0.000000   0.121385  -0.000000   0.000000  -0.000409
     15       0.007820  -0.004572  -0.000000   0.252011  -0.156851  -0.000000
     16       0.022760  -0.005457   0.000000  -0.156851   0.165418   0.000000
     17       0.000000   0.000000  -0.000409  -0.000000   0.000000   0.022995
     18      -0.005065  -0.001144   0.000000   0.000447   0.000719  -0.000000
     19      -0.000226   0.000806   0.000000  -0.000518  -0.000225   0.000000
     20       0.000000   0.000000   0.005090  -0.000000   0.000000  -0.002926
     21       0.002668   0.021196   0.000000   0.000528   0.001197  -0.000000
     22      -0.001835   0.002997  -0.000000   0.000088   0.000284   0.000000
     23      -0.000000   0.000000   0.003014   0.000000   0.000000   0.000935
     24      -0.247063  -0.143720  -0.000000  -0.000170  -0.000696   0.000000
     25      -0.146131  -0.166549  -0.000000   0.000696   0.001200   0.000000
     26      -0.000000  -0.000000  -0.029985  -0.000000   0.000000  -0.001886
                 18         19         20         21         22         23    
      0       0.002668   0.001835  -0.000000  -0.005065   0.000226  -0.000000
      1      -0.021196   0.002997   0.000000   0.001144   0.000806  -0.000000
      2      -0.000000  -0.000000   0.003014  -0.000000   0.000000   0.005090
      3      -0.130350  -0.127110   0.000000  -0.003695  -0.005029   0.000000
      4      -0.138123  -0.286304  -0.000000  -0.003165   0.000648  -0.000000
      5       0.000000   0.000000  -0.024817   0.000000   0.000000   0.002804
      6       0.012260  -0.009781  -0.000000   0.012260   0.009781  -0.000000
      7       0.025461  -0.025516  -0.000000  -0.025461  -0.025516   0.000000
      8      -0.000000   0.000000  -0.005558   0.000000  -0.000000  -0.005558
      9      -0.003695   0.005029   0.000000  -0.130350   0.127110  -0.000000
     10       0.003165   0.000648   0.000000   0.138123  -0.286304   0.000000
     11       0.000000  -0.000000   0.002804  -0.000000   0.000000  -0.024817
     12      -0.005065  -0.000226   0.000000   0.002668  -0.001835  -0.000000
     13      -0.001144   0.000806   0.000000   0.021196   0.002997   0.000000
     14       0.000000   0.000000   0.005090   0.000000  -0.000000   0.003014
     15       0.000447  -0.000518  -0.000000   0.000528   0.000088   0.000000
     16       0.000719  -0.000225   0.000000   0.001197   0.000284   0.000000
     17      -0.000000   0.000000  -0.002926  -0.000000   0.000000   0.000935
     18       0.122429   0.131587  -0.000000   0.000779   0.000729   0.000000
     19       0.131587   0.307891  -0.000000  -0.000729  -0.000580   0.000000
     20      -0.000000  -0.000000   0.019724  -0.000000   0.000000   0.001734
     21       0.000779  -0.000729  -0.000000   0.122429  -0.131587   0.000000
     22       0.000729  -0.000580   0.000000  -0.131587   0.307891  -0.000000
     23       0.000000   0.000000   0.001734   0.000000  -0.000000   0.019724
     24       0.000528  -0.000088  -0.000000   0.000447   0.000518   0.000000
     25      -0.001197   0.000284  -0.000000  -0.000719  -0.000225   0.000000
     26      -0.000000   0.000000   0.000935   0.000000  -0.000000  -0.002926
                 24         25         26    
      0       0.007820  -0.022760  -0.000000
      1       0.004572  -0.005457  -0.000000
      2       0.000000   0.000000  -0.000409
      3      -0.001127   0.000906   0.000000
      4       0.003100  -0.006461  -0.000000
      5      -0.000000  -0.000000   0.003615
      6      -0.004719   0.004484   0.000000
      7      -0.000742   0.001645   0.000000
      8      -0.000000  -0.000000   0.008761
      9      -0.007726   0.007869  -0.000000
     10      -0.019793   0.010144  -0.000000
     11       0.000000   0.000000  -0.001100
     12      -0.247063  -0.146131  -0.000000
     13      -0.143720  -0.166549  -0.000000
     14      -0.000000  -0.000000  -0.029985
     15      -0.000170   0.000696  -0.000000
     16      -0.000696   0.001200   0.000000
     17       0.000000   0.000000  -0.001886
     18       0.000528  -0.001197  -0.000000
     19      -0.000088   0.000284   0.000000
     20      -0.000000  -0.000000   0.000935
     21       0.000447  -0.000719   0.000000
     22       0.000518  -0.000225  -0.000000
     23       0.000000   0.000000  -0.002926
     24       0.252011   0.156851   0.000000
     25       0.156851   0.165418   0.000000
     26       0.000000   0.000000   0.022995

symmetrized, mass weighted Hessian : 
                  0          1          2          3          4          5    
      0       0.069792  -0.009310  -0.000000  -0.033939  -0.007951   0.000000
      1      -0.009310   0.052064   0.000000  -0.006887  -0.010261   0.000000
      2      -0.000000   0.000000   0.010115   0.000000   0.000000  -0.005461
      3      -0.033939  -0.006887   0.000000   0.060675   0.014534  -0.000000
      4      -0.007951  -0.010261   0.000000   0.014534   0.062693  -0.000000
      5       0.000000   0.000000  -0.005461  -0.000000  -0.000000   0.010370
      6      -0.005700   0.000466  -0.000000  -0.012036   0.004770   0.000000
      7       0.003777  -0.001685  -0.000000   0.007920  -0.014257  -0.000000
      8       0.000000   0.000000   0.001000   0.000000  -0.000000  -0.004833
      9      -0.000023   0.006365  -0.000000  -0.000909  -0.001167   0.000000
     10       0.001056  -0.002560   0.000000   0.001167  -0.009914   0.000000
     11       0.000000  -0.000000   0.001001  -0.000000   0.000000   0.001294
     12      -0.009114  -0.001392   0.000000  -0.000023  -0.001056  -0.000000
     13       0.001392  -0.023281  -0.000000  -0.006365  -0.002560  -0.000000
     14      -0.000000  -0.000000  -0.004953  -0.000000   0.000000   0.001001
     15      -0.071043   0.041327   0.000000  -0.002222   0.005692  -0.000000
     16       0.042020  -0.047892  -0.000000  -0.002263   0.002917   0.000000
     17       0.000000  -0.000000  -0.008622   0.000000  -0.000000  -0.000316
     18       0.000767  -0.006095  -0.000000  -0.037483  -0.039718   0.000000
     19       0.000528   0.000862  -0.000000  -0.036551  -0.082327   0.000000
     20      -0.000000   0.000000   0.000867   0.000000  -0.000000  -0.007136
     21      -0.001457   0.000329  -0.000000  -0.001063  -0.000910   0.000000
     22       0.000065   0.000232   0.000000  -0.001446   0.000186   0.000000
     23      -0.000000  -0.000000   0.001464   0.000000  -0.000000   0.000806
     24       0.002249   0.001315   0.000000  -0.000324   0.000891  -0.000000
     25      -0.006545  -0.001569   0.000000   0.000261  -0.001858  -0.000000
     26      -0.000000  -0.000000  -0.000117   0.000000  -0.000000   0.001040
                  6          7          8          9         10         11    
      0      -0.005700   0.003777   0.000000  -0.000023   0.001056   0.000000
      1       0.000466  -0.001685   0.000000   0.006365  -0.002560  -0.000000
      2      -0.000000  -0.000000   0.001000  -0.000000   0.000000   0.001001
      3      -0.012036   0.007920   0.000000  -0.000909   0.001167  -0.000000
      4       0.004770  -0.014257  -0.000000  -0.001167  -0.009914   0.000000
      5       0.000000  -0.000000  -0.004833   0.000000   0.000000   0.001294
      6       0.029782   0.000000  -0.000000  -0.012036  -0.004770   0.000000
      7       0.000000   0.030601  -0.000000  -0.007920  -0.014257   0.000000
      8      -0.000000  -0.000000   0.006239   0.000000   0.000000  -0.004833
      9      -0.012036  -0.007920   0.000000   0.060675  -0.014534   0.000000
     10      -0.004770  -0.014257   0.000000  -0.014534   0.062693  -0.000000
     11       0.000000   0.000000  -0.004833   0.000000  -0.000000   0.010370
     12      -0.005700  -0.003777  -0.000000  -0.033939   0.007951  -0.000000
     13      -0.000466  -0.001685  -0.000000   0.006887  -0.010261   0.000000
     14       0.000000  -0.000000   0.001000  -0.000000   0.000000  -0.005461
     15      -0.001175   0.000185   0.000000  -0.000324  -0.000891   0.000000
     16      -0.001117   0.000410  -0.000000  -0.000261  -0.001858  -0.000000
     17      -0.000000   0.000000   0.002182  -0.000000  -0.000000   0.001040
     18       0.003054   0.006341  -0.000000  -0.001063   0.000910   0.000000
     19      -0.002436  -0.006355   0.000000   0.001446   0.000186  -0.000000
     20      -0.000000  -0.000000  -0.001384   0.000000   0.000000   0.000806
     21       0.003054  -0.006341   0.000000  -0.037483   0.039718  -0.000000
     22       0.002436  -0.006355  -0.000000   0.036551  -0.082327   0.000000
     23      -0.000000   0.000000  -0.001384  -0.000000   0.000000  -0.007136
     24      -0.001175  -0.000185  -0.000000  -0.002222  -0.005692   0.000000
     25       0.001117   0.000410  -0.000000   0.002263   0.002917   0.000000
     26       0.000000   0.000000   0.002182  -0.000000  -0.000000  -0.000316
                 12         13         14         15         16         17    
      0      -0.009114   0.001392  -0.000000  -0.071043   0.042020   0.000000
      1      -0.001392  -0.023281  -0.000000   0.041327  -0.047892  -0.000000
      2       0.000000  -0.000000  -0.004953   0.000000  -0.000000  -0.008622
      3      -0.000023  -0.006365  -0.000000  -0.002222  -0.002263   0.000000
      4      -0.001056  -0.002560   0.000000   0.005692   0.002917  -0.000000
      5      -0.000000  -0.000000   0.001001  -0.000000   0.000000  -0.000316
      6      -0.005700  -0.000466   0.000000  -0.001175  -0.001117  -0.000000
      7      -0.003777  -0.001685  -0.000000   0.000185   0.000410   0.000000
      8      -0.000000  -0.000000   0.001000   0.000000  -0.000000   0.002182
      9      -0.033939   0.006887  -0.000000  -0.000324  -0.000261  -0.000000
     10       0.007951  -0.010261   0.000000  -0.000891  -0.001858  -0.000000
     11      -0.000000   0.000000  -0.005461   0.000000  -0.000000   0.001040
     12       0.069792   0.009310   0.000000   0.002249   0.006545   0.000000
     13       0.009310   0.052064   0.000000  -0.001315  -0.001569   0.000000
     14       0.000000   0.000000   0.010115  -0.000000   0.000000  -0.000117
     15       0.002249  -0.001315  -0.000000   0.250054  -0.155633  -0.000000
     16       0.006545  -0.001569   0.000000  -0.155633   0.164134   0.000000
     17       0.000000   0.000000  -0.000117  -0.000000   0.000000   0.022816
     18      -0.001457  -0.000329   0.000000   0.000444   0.000713  -0.000000
     19      -0.000065   0.000232   0.000000  -0.000514  -0.000224   0.000000
     20       0.000000   0.000000   0.001464  -0.000000   0.000000  -0.002903
     21       0.000767   0.006095   0.000000   0.000523   0.001188  -0.000000
     22      -0.000528   0.000862  -0.000000   0.000087   0.000282   0.000000
     23      -0.000000   0.000000   0.000867   0.000000   0.000000   0.000927
     24      -0.071043  -0.041327  -0.000000  -0.000169  -0.000691   0.000000
     25      -0.042020  -0.047892  -0.000000   0.000690   0.001191   0.000000
     26      -0.000000  -0.000000  -0.008622  -0.000000   0.000000  -0.001871
                 18         19         20         21         22         23    
      0       0.000767   0.000528  -0.000000  -0.001457   0.000065  -0.000000
      1      -0.006095   0.000862   0.000000   0.000329   0.000232  -0.000000
      2      -0.000000  -0.000000   0.000867  -0.000000   0.000000   0.001464
      3      -0.037483  -0.036551   0.000000  -0.001063  -0.001446   0.000000
      4      -0.039718  -0.082327  -0.000000  -0.000910   0.000186  -0.000000
      5       0.000000   0.000000  -0.007136   0.000000   0.000000   0.000806
      6       0.003054  -0.002436  -0.000000   0.003054   0.002436  -0.000000
      7       0.006341  -0.006355  -0.000000  -0.006341  -0.006355   0.000000
      8      -0.000000   0.000000  -0.001384   0.000000  -0.000000  -0.001384
      9      -0.001063   0.001446   0.000000  -0.037483   0.036551  -0.000000
     10       0.000910   0.000186   0.000000   0.039718  -0.082327   0.000000
     11       0.000000  -0.000000   0.000806  -0.000000   0.000000  -0.007136
     12      -0.001457  -0.000065   0.000000   0.000767  -0.000528  -0.000000
     13      -0.000329   0.000232   0.000000   0.006095   0.000862   0.000000
     14       0.000000   0.000000   0.001464   0.000000  -0.000000   0.000867
     15       0.000444  -0.000514  -0.000000   0.000523   0.000087   0.000000
     16       0.000713  -0.000224   0.000000   0.001188   0.000282   0.000000
     17      -0.000000   0.000000  -0.002903  -0.000000   0.000000   0.000927
     18       0.121478   0.130565  -0.000000   0.000773   0.000723   0.000000
     19       0.130565   0.305500  -0.000000  -0.000723  -0.000575   0.000000
     20      -0.000000  -0.000000   0.019571  -0.000000   0.000000   0.001720
     21       0.000773  -0.000723  -0.000000   0.121478  -0.130565   0.000000
     22       0.000723  -0.000575   0.000000  -0.130565   0.305500  -0.000000
     23       0.000000   0.000000   0.001720   0.000000  -0.000000   0.019571
     24       0.000523  -0.000087  -0.000000   0.000444   0.000514   0.000000
     25      -0.001188   0.000282  -0.000000  -0.000713  -0.000224   0.000000
     26      -0.000000   0.000000   0.000927   0.000000  -0.000000  -0.002903
                 24         25         26    
      0       0.002249  -0.006545  -0.000000
      1       0.001315  -0.001569  -0.000000
      2       0.000000   0.000000  -0.000117
      3      -0.000324   0.000261   0.000000
      4       0.000891  -0.001858  -0.000000
      5      -0.000000  -0.000000   0.001040
      6      -0.001175   0.001117   0.000000
      7      -0.000185   0.000410   0.000000
      8      -0.000000  -0.000000   0.002182
      9      -0.002222   0.002263  -0.000000
     10      -0.005692   0.002917  -0.000000
     11       0.000000   0.000000  -0.000316
     12      -0.071043  -0.042020  -0.000000
     13      -0.041327  -0.047892  -0.000000
     14      -0.000000  -0.000000  -0.008622
     15      -0.000169   0.000690  -0.000000
     16      -0.000691   0.001191   0.000000
     17       0.000000   0.000000  -0.001871
     18       0.000523  -0.001188  -0.000000
     19      -0.000087   0.000282   0.000000
     20      -0.000000  -0.000000   0.000927
     21       0.000444  -0.000713   0.000000
     22       0.000514  -0.000224  -0.000000
     23       0.000000   0.000000  -0.002903
     24       0.250054   0.155633   0.000000
     25       0.155633   0.164134   0.000000
     26       0.000000   0.000000   0.022816

diagonalized Hessian : 
	  0      -0.000001
	  1      -0.000000
	  2      -0.000000
	  3       0.000000
	  4       0.000000
	  5       0.000002
	  6       0.014373
	  7       0.015068
	  8       0.021105
	  9       0.021844
	 10       0.028390
	 11       0.029800
	 12       0.029893
	 13       0.031203
	 14       0.038651
	 15       0.042400
	 16       0.045894
	 17       0.051347
	 18       0.056910
	 19       0.062282
	 20       0.077037
	 21       0.087520
	 22       0.097458
	 23       0.398549
	 24       0.401161
	 25       0.406340
	 26       0.407924


Eigenvectors of Hessian matrix : 
                  0          1          2          3          4          5    
      0      -0.228458   0.000015  -0.419994  -0.000002   0.071301  -0.000001
      1      -0.195488  -0.000005   0.002848  -0.000000   0.496848  -0.000001
      2       0.000003   0.463476   0.000014   0.420003   0.000007   0.340586
      3      -0.348161   0.000016  -0.419993  -0.000002   0.107101  -0.000001
      4       0.223800  -0.000007   0.002841  -0.000000   0.371439   0.000000
      5      -0.000003  -0.152198  -0.000007   0.420003  -0.000002   0.517957
      6       0.000942   0.000016  -0.484887  -0.000002   0.003152   0.000000
      7       0.554563  -0.000009   0.003289  -0.000000   0.340246   0.000001
      8      -0.000005  -0.609952  -0.000023   0.484901  -0.000008  -0.000292
      9       0.349793   0.000013  -0.419994  -0.000002  -0.101640   0.000001
     10       0.223800  -0.000007   0.002858  -0.000000   0.371438   0.000000
     11       0.000000  -0.151701  -0.000007   0.420003  -0.000002  -0.518103
     12       0.230090   0.000013  -0.419995  -0.000002  -0.065840   0.000001
     13      -0.195488  -0.000005   0.002852  -0.000000   0.496848  -0.000001
     14       0.000005   0.463801   0.000014   0.420002   0.000006  -0.340142
     15      -0.127446   0.000005  -0.121714  -0.000000   0.038980  -0.000000
     16      -0.136570  -0.000001   0.000827  -0.000000   0.167891  -0.000001
     17       0.000001   0.251578   0.000008   0.121718   0.000004   0.189692
     18      -0.190107   0.000005  -0.121716  -0.000000   0.057722  -0.000001
     19       0.111308  -0.000002   0.000824  -0.000000   0.093750   0.000000
     20      -0.000002  -0.112355  -0.000004   0.121718  -0.000001   0.282542
     21       0.190581   0.000003  -0.121717  -0.000000  -0.056139   0.000001
     22       0.111308  -0.000002   0.000827  -0.000000   0.093750   0.000000
     23      -0.000000  -0.112085  -0.000004   0.121718  -0.000002  -0.282649
     24       0.127919   0.000004  -0.121714  -0.000000  -0.037397   0.000000
     25      -0.136570  -0.000001   0.000825  -0.000000   0.167891  -0.000001
     26       0.000003   0.251759   0.000008   0.121718   0.000003  -0.189451
                  6          7          8          9         10         11    
      0      -0.000000  -0.000000   0.000000  -0.000000   0.000000  -0.233129
      1       0.000000   0.000000  -0.000000   0.000000  -0.000000  -0.036636
      2      -0.511443   0.178778   0.070570   0.108601  -0.254720   0.000000
      3       0.000000  -0.000000   0.000000  -0.000000   0.000000  -0.109413
      4      -0.000000  -0.000000  -0.000000  -0.000000   0.000000  -0.355520
      5       0.292877  -0.407825   0.351378   0.271788   0.245601   0.000000
      6      -0.000000   0.000000   0.000000  -0.000000  -0.000000   0.662185
      7       0.000000   0.000000  -0.000000   0.000000   0.000000   0.000013
      8      -0.000000   0.588027   0.000000  -0.216703   0.009638  -0.000000
      9       0.000000   0.000000  -0.000000   0.000000  -0.000000  -0.109445
     10      -0.000000  -0.000000   0.000000  -0.000000   0.000000   0.355550
     11      -0.292877  -0.407825  -0.351379   0.271786   0.245600   0.000000
     12      -0.000000  -0.000000  -0.000000   0.000000  -0.000000  -0.233183
     13      -0.000000   0.000000  -0.000000   0.000000  -0.000000   0.036588
     14       0.511443   0.178778  -0.070571   0.108600  -0.254719  -0.000000
     15      -0.000000   0.000000   0.000000  -0.000000   0.000000   0.078744
     16       0.000000   0.000000   0.000000   0.000000  -0.000000   0.184009
     17      -0.283239  -0.022731  -0.279016  -0.478170   0.438961  -0.000000
     18       0.000000  -0.000000  -0.000000  -0.000000  -0.000000  -0.215572
     19      -0.000000  -0.000000   0.000000  -0.000000   0.000000  -0.011949
     20       0.269118  -0.358208  -0.541942  -0.402757  -0.426693   0.000000
     21       0.000000   0.000000  -0.000000   0.000000   0.000000  -0.215569
     22      -0.000000  -0.000000   0.000000  -0.000000  -0.000000   0.011965
     23      -0.269118  -0.358207   0.541944  -0.402755  -0.426692  -0.000000
     24      -0.000000   0.000000  -0.000000   0.000000  -0.000000   0.078724
     25      -0.000000   0.000000  -0.000000   0.000000  -0.000000  -0.184016
     26       0.283240  -0.022731   0.279019  -0.478168   0.438959   0.000000
                 12         13         14         15         16         17    
      0      -0.421155  -0.000000  -0.009027  -0.086300  -0.062205  -0.319423
      1       0.369953   0.000000   0.256277  -0.022347  -0.215418   0.318868
      2      -0.000000  -0.342926  -0.000000   0.000000  -0.000000   0.000000
      3      -0.253386  -0.000000   0.072381   0.120622   0.137300   0.074096
      4      -0.234505  -0.000000  -0.125940   0.309233  -0.460839   0.187977
      5       0.000000   0.149669   0.000000   0.000000   0.000000   0.000000
      6       0.000043   0.000000  -0.336462  -0.000001  -0.218731   0.340975
      7      -0.199438  -0.000000   0.000002  -0.282303   0.000001  -0.000002
      8       0.000000  -0.000000   0.000000  -0.000000   0.000000  -0.000000
      9       0.253372   0.000000   0.072382  -0.120622   0.137298   0.074098
     10      -0.234460   0.000000   0.125937   0.309232   0.460839  -0.187975
     11       0.000000  -0.149670  -0.000000  -0.000000  -0.000000   0.000000
     12       0.421125  -0.000000  -0.009028   0.086300  -0.062204  -0.319424
     13       0.369958   0.000000  -0.256277  -0.022349   0.215418  -0.318868
     14      -0.000000   0.342927  -0.000000   0.000000   0.000000  -0.000000
     15      -0.166967  -0.000000   0.303580  -0.314283  -0.102898  -0.206870
     16       0.053250  -0.000000   0.481458  -0.378756  -0.182896  -0.028273
     17       0.000000   0.553161   0.000000  -0.000000   0.000000  -0.000000
     18       0.027224  -0.000000   0.148016   0.312111   0.279500   0.374194
     19      -0.123481   0.000000  -0.103285  -0.048845  -0.269115  -0.117126
     20      -0.000000  -0.232407  -0.000000  -0.000000  -0.000000  -0.000000
     21      -0.027252  -0.000000   0.148018  -0.312111   0.279497   0.374195
     22      -0.123479  -0.000000   0.103285  -0.048845   0.269114   0.117126
     23      -0.000000   0.232408  -0.000000  -0.000000  -0.000000  -0.000000
     24       0.166977   0.000000   0.303579   0.314286  -0.102896  -0.206870
     25       0.053227   0.000000  -0.481455  -0.378760   0.182893   0.028274
     26       0.000000  -0.553162  -0.000000  -0.000000  -0.000000  -0.000000
                 18         19         20         21         22         23    
      0       0.014255  -0.102239  -0.170199   0.323634   0.466118   0.157296
      1      -0.010664  -0.195045  -0.514045   0.054177   0.161013  -0.111714
      2       0.000000  -0.000000  -0.000000  -0.000000  -0.000000  -0.000000
      3      -0.218786  -0.216343  -0.019026  -0.520335  -0.426429   0.025703
      4       0.311614   0.167343   0.271831  -0.009632  -0.064229   0.055553
      5       0.000000   0.000000   0.000000   0.000000   0.000000   0.000000
      6      -0.000002  -0.000000   0.109524   0.192509   0.000000   0.000000
      7      -0.676021   0.007970   0.000001   0.000000   0.010865   0.004819
      8       0.000000  -0.000000  -0.000000  -0.000000   0.000000  -0.000000
      9       0.218786   0.216343  -0.019028  -0.520336   0.426428  -0.025703
     10       0.311617   0.167343  -0.271833   0.009632  -0.064229   0.055553
     11      -0.000000   0.000000   0.000000  -0.000000   0.000000  -0.000000
     12      -0.014254   0.102239  -0.170198   0.323634  -0.466118  -0.157296
     13      -0.010661  -0.195043   0.514045  -0.054178   0.161015  -0.111714
     14      -0.000000   0.000000   0.000000   0.000000  -0.000000  -0.000000
     15       0.093331   0.235445   0.206695   0.074708  -0.029275  -0.508804
     16       0.118085   0.291785   0.175687  -0.041233  -0.204146   0.385841
     17      -0.000000   0.000000   0.000000  -0.000000  -0.000000   0.000000
     18      -0.259723   0.437165   0.228085   0.220575   0.072842  -0.102972
     19       0.189995  -0.212086  -0.030435  -0.216840  -0.151475  -0.201647
     20       0.000000  -0.000000  -0.000000  -0.000000  -0.000000   0.000000
     21       0.259724  -0.437164   0.228086   0.220575  -0.072841   0.102972
     22       0.189996  -0.212086   0.030436   0.216840  -0.151474  -0.201647
     23      -0.000000  -0.000000   0.000000  -0.000000   0.000000   0.000000
     24      -0.093329  -0.235444   0.206695   0.074707   0.029276   0.508804
     25       0.118085   0.291784  -0.175687   0.041233  -0.204146   0.385841
     26      -0.000000  -0.000000   0.000000   0.000000  -0.000000   0.000000
                 24         25         26    
      0       0.149486   0.072532   0.084851
      1      -0.121137  -0.031479  -0.055211
      2      -0.000000  -0.000000  -0.000000
      3       0.030678  -0.106760  -0.099950
      4       0.076669  -0.170332  -0.173676
      5       0.000000   0.000000   0.000000
      6      -0.002887   0.000000  -0.002655
      7       0.000000   0.001253  -0.000000
      8      -0.000000  -0.000000   0.000000
      9       0.030678   0.106760  -0.099950
     10      -0.076669  -0.170332   0.173676
     11       0.000000   0.000000  -0.000000
     12       0.149486  -0.072532   0.084851
     13       0.121137  -0.031479   0.055211
     14       0.000000  -0.000000   0.000000
     15      -0.483651  -0.178049  -0.226318
     16       0.372127   0.131291   0.170424
     17       0.000000   0.000000   0.000000
     18      -0.132279   0.296470   0.283708
     19      -0.257412   0.562586   0.537440
     20       0.000000  -0.000000  -0.000000
     21      -0.132279  -0.296471   0.283708
     22       0.257412   0.562586  -0.537439
     23      -0.000000  -0.000000   0.000000
     24      -0.483651   0.178049  -0.226317
     25      -0.372127   0.131291  -0.170424
     26      -0.000000   0.000000  -0.000000

normal coordinates : 
                  0          1          2          3          4          5    
      0           -nan       -nan       -nan  -0.000000   0.021056  -0.000000
      1           -nan       -nan       -nan  -0.000000   0.146722  -0.000001
      2           -nan       -nan       -nan   0.003289   0.000002   0.206417
      3           -nan       -nan       -nan  -0.000000   0.031627  -0.000001
      4           -nan       -nan       -nan  -0.000000   0.109688   0.000000
      5           -nan       -nan       -nan   0.003289  -0.000000   0.313915
      6           -nan       -nan       -nan  -0.000000   0.001075   0.000000
      7           -nan       -nan       -nan  -0.000000   0.116002   0.000001
      8           -nan       -nan       -nan   0.004384  -0.000003  -0.000204
      9           -nan       -nan       -nan  -0.000000  -0.030015   0.000001
     10           -nan       -nan       -nan  -0.000000   0.109688   0.000000
     11           -nan       -nan       -nan   0.003289  -0.000001  -0.314003
     12           -nan       -nan       -nan  -0.000000  -0.019443   0.000001
     13           -nan       -nan       -nan  -0.000000   0.146722  -0.000001
     14           -nan       -nan       -nan   0.003289   0.000002  -0.206147
     15           -nan       -nan       -nan  -0.000000   0.003336  -0.000000
     16           -nan       -nan       -nan  -0.000000   0.014368  -0.000000
     17           -nan       -nan       -nan   0.000276   0.000000   0.033317
     18           -nan       -nan       -nan  -0.000000   0.004940  -0.000000
     19           -nan       -nan       -nan  -0.000000   0.008023   0.000000
     20           -nan       -nan       -nan   0.000276  -0.000000   0.049625
     21           -nan       -nan       -nan  -0.000000  -0.004804   0.000000
     22           -nan       -nan       -nan  -0.000000   0.008023   0.000000
     23           -nan       -nan       -nan   0.000276  -0.000000  -0.049644
     24           -nan       -nan       -nan  -0.000000  -0.003200   0.000000
     25           -nan       -nan       -nan  -0.000000   0.014368  -0.000000
     26           -nan       -nan       -nan   0.000276   0.000000  -0.033275
                  6          7          8          9         10         11    
      0      -0.000000  -0.000000   0.000000  -0.000000   0.000001  -1.652876
      1       0.000000   0.000000  -0.000000   0.000000  -0.000001  -0.259746
      2      -3.021836   1.068854   0.458996   0.712448  -1.784193   0.000000
      3       0.000000  -0.000000   0.000000  -0.000000   0.000001  -0.775730
      4      -0.000000  -0.000000  -0.000000  -0.000000   0.000001  -2.520617
      5       1.730449  -2.438252   2.285403   1.782997   1.720320   0.000000
      6      -0.000000   0.000000   0.000000  -0.000000  -0.000001   5.420294
      7       0.000000   0.000000  -0.000000   0.000000   0.000000   0.000104
      8      -0.000002   4.058851   0.000001  -1.641289   0.077939  -0.000000
      9       0.000000   0.000000  -0.000000   0.000000  -0.000000  -0.775962
     10      -0.000000  -0.000000   0.000000  -0.000000   0.000000   2.520834
     11      -1.730450  -2.438252  -2.285410   1.782984   1.720316   0.000001
     12      -0.000000  -0.000000  -0.000000   0.000000  -0.000000  -1.653255
     13      -0.000000   0.000000  -0.000000   0.000000  -0.000001   0.259410
     14       3.021838   1.068855  -0.459000   0.712446  -1.784188  -0.000001
     15      -0.000000   0.000000   0.000000  -0.000000   0.000000   0.161795
     16       0.000000   0.000000   0.000000   0.000000  -0.000000   0.378081
     17      -0.484985  -0.039385  -0.525920  -0.909085   0.891060  -0.000000
     18       0.000000  -0.000000  -0.000000  -0.000000  -0.000000  -0.442932
     19      -0.000000  -0.000000   0.000000  -0.000000   0.000000  -0.024552
     20       0.460806  -0.620644  -1.021510  -0.765712  -0.866157   0.000000
     21       0.000000   0.000000  -0.000000   0.000000   0.000000  -0.442926
     22      -0.000000  -0.000000   0.000000  -0.000000  -0.000000   0.024585
     23      -0.460807  -0.620643   1.021515  -0.765708  -0.866155  -0.000000
     24      -0.000000   0.000000  -0.000000   0.000000  -0.000000   0.161752
     25      -0.000000   0.000000  -0.000000   0.000000  -0.000000  -0.378096
     26       0.484986  -0.039384   0.525925  -0.909082   0.891057   0.000000
                 12         13         14         15         16         17    
      0      -2.988307  -0.000001  -0.068303  -0.668249  -0.491311  -2.594684
      1       2.625003   0.000000   1.939057  -0.173040  -1.701415   2.590174
      2      -0.000000  -2.459447  -0.000000   0.000000  -0.000000   0.000000
      3      -1.797903  -0.000000   0.547652   0.934021   1.084424   0.601884
      4      -1.663930  -0.000000  -0.952893   2.394509  -3.639799   1.526939
      5       0.000000   1.073421   0.000000   0.000000   0.000000   0.000000
      6       0.000349   0.000001  -2.939112  -0.000010  -1.994521   3.197721
      7      -1.633776  -0.000000   0.000014  -2.523745   0.000009  -0.000017
      8       0.000000  -0.000001   0.000000  -0.000000   0.000000  -0.000000
      9       1.797801   0.000000   0.547660  -0.934022   1.084407   0.601900
     10      -1.663610   0.000000   0.952867   2.394493   3.639795  -1.526926
     11       0.000000  -1.073426  -0.000000  -0.000000  -0.000000   0.000000
     12       2.988098  -0.000000  -0.068306   0.668254  -0.491303  -2.594685
     13       2.625040   0.000000  -1.939051  -0.173057   1.701418  -2.590172
     14      -0.000001   2.459453  -0.000000   0.000000   0.000000  -0.000000
     15      -0.343334  -0.000000   0.665665  -0.705265  -0.235526  -0.486987
     16       0.109498  -0.000000   1.055699  -0.849946  -0.418633  -0.066557
     17       0.000000   1.149716   0.000000  -0.000000   0.000000  -0.000000
     18       0.055981  -0.000000   0.324557   0.700391   0.639751   0.880878
     19      -0.253912   0.000000  -0.226474  -0.109610  -0.615983  -0.275722
     20      -0.000000  -0.483046  -0.000000  -0.000000  -0.000000  -0.000000
     21      -0.056039  -0.000000   0.324561  -0.700390   0.639745   0.880881
     22      -0.253910  -0.000000   0.226474  -0.109611   0.615980   0.275724
     23      -0.000000   0.483048  -0.000000  -0.000000  -0.000000  -0.000000
     24       0.343355   0.000000   0.665662   0.705271  -0.235521  -0.486988
     25       0.109450   0.000000  -1.055694  -0.849956   0.418628   0.066558
     26       0.000000  -1.149719  -0.000000  -0.000000  -0.000000  -0.000000
                 18         19         20         21         22         23    
      0       0.118811  -0.871561  -1.530102   3.003791   4.444162   2.132694
      1      -0.088881  -1.662701  -4.621311   0.502843   1.535161  -1.514669
      2       0.000000  -0.000000  -0.000000  -0.000000  -0.000000  -0.000000
      3      -1.823498  -1.844265  -0.171046  -4.829466  -4.065754   0.348494
      4       2.597188   1.426549   2.443791  -0.089399  -0.612381   0.753211
      5       0.000000   0.000000   0.000000   0.000000   0.000000   0.000000
      6      -0.000015  -0.000002   1.136775   2.062854   0.000004   0.000000
      7      -6.504998   0.078436   0.000009   0.000005   0.119595   0.075427
      8       0.000000  -0.000000  -0.000000  -0.000000   0.000000  -0.000000
      9       1.823499   1.844267  -0.171067  -4.829475   4.065743  -0.348494
     10       2.597214   1.426548  -2.443803   0.089399  -0.612382   0.753210
     11      -0.000000   0.000000   0.000000  -0.000000   0.000000  -0.000000
     12      -0.118801   0.871557  -1.530096   3.003799  -4.444159  -2.132695
     13      -0.088852  -1.662690   4.621312  -0.502848   1.535180  -1.514670
     14      -0.000000   0.000000   0.000000   0.000000  -0.000000  -0.000000
     15       0.225432   0.581663   0.538514   0.200948  -0.080890  -1.999228
     16       0.285223   0.720849   0.457726  -0.110908  -0.564074   1.516074
     17      -0.000000   0.000000   0.000000  -0.000000  -0.000000   0.000000
     18      -0.627335   1.080008   0.594242   0.593299   0.201269  -0.404607
     19       0.458913  -0.523955  -0.079294  -0.583252  -0.418539  -0.792325
     20       0.000000  -0.000000  -0.000000  -0.000000  -0.000000   0.000000
     21       0.627336  -1.080006   0.594244   0.593299  -0.201267   0.404606
     22       0.458916  -0.523954   0.079295   0.583253  -0.418537  -0.792324
     23      -0.000000  -0.000000   0.000000  -0.000000   0.000000   0.000000
[...]
  2  17  3839.18  0.000000    0.00   0.000000   ( 0.000000  0.000000  0.000137)
  2  18  3849.45  0.000000    0.00   0.000000   (-0.000000 -0.000000 -0.000000)
  2  19  3865.98  0.000021    0.11   0.000002   ( 0.000000  0.000000  0.001315)
  2  20  3874.28  0.000000    0.00   0.000000   (-0.000000 -0.000000  0.000000)
  3   3  1495.08  0.000002    0.01   0.000001   (-0.000717 -0.000000  0.000000)
  3   4  1585.47  0.000583    2.95   0.000115   (-0.010713 -0.000000  0.000000)
  3   5  1626.37  0.000000    0.00   0.000000   (-0.000000  0.000000 -0.000074)
  3   6  1625.46  0.000000    0.00   0.000000   (-0.000000 -0.000000 -0.000000)
  3   7  1619.05  0.000009    0.05   0.000002   (-0.000000 -0.001320  0.000000)
  3   8  1745.76  0.000001    0.00   0.000000   ( 0.000000  0.000000 -0.000334)
  3   9  1788.92  0.000000    0.00   0.000000   ( 0.000000  0.000000 -0.000000)
  3  10  1828.48  0.000001    0.00   0.000000   ( 0.000000  0.000000  0.000314)
  3  11  1892.08  0.000003    0.02   0.000001   (-0.000000 -0.000000 -0.000714)
  3  12  1934.19  0.000000    0.00   0.000000   (-0.000000 -0.000000 -0.000000)
  3  13  2004.49  0.000000    0.00   0.000000   ( 0.000000  0.000000 -0.000000)
  3  14  2141.08  0.000000    0.00   0.000000   ( 0.000000  0.000000 -0.000263)
  3  15  2239.40  0.000016    0.08   0.000002   (-0.000000 -0.000000  0.001511)
  3  16  2313.21  0.000000    0.00   0.000000   (-0.000000 -0.000000  0.000000)
  3  17  3860.81  0.000000    0.00   0.000000   ( 0.000000  0.000000 -0.000000)
  3  18  3871.41  0.000000    0.00   0.000000   ( 0.000000 -0.000000 -0.000002)
  3  19  3892.21  0.000000    0.00   0.000000   ( 0.000000 -0.000000 -0.000000)
  3  20  3900.27  0.000002    0.01   0.000000   (-0.000000 -0.000000 -0.000427)
  4   4  1677.54  0.000002    0.01   0.000000   ( 0.000558 -0.000000 -0.000000)
  4   5  1717.53  0.000000    0.00   0.000000   ( 0.000000 -0.000000  0.000281)
  4   6  1716.98  0.000000    0.00   0.000000   ( 0.000000  0.000000  0.000000)
  4   7  1708.91  0.000511    2.58   0.000093   ( 0.000000 -0.009663 -0.000000)
  4   8  1837.48  0.000007    0.03   0.000001   (-0.000000 -0.000000  0.001052)
  4   9  1879.30  0.000000    0.00   0.000000   (-0.000000  0.000000 -0.000000)
  4  10  1920.13  0.000004    0.02   0.000001   (-0.000000  0.000000  0.000808)
  4  11  1983.79  0.000006    0.03   0.000001   (-0.000000  0.000000  0.000974)
  4  12  2026.08  0.000000    0.00   0.000000   (-0.000000  0.000000 -0.000000)
  4  13  2096.07  0.000000    0.00   0.000000   ( 0.000000 -0.000000 -0.000000)
  4  14  2230.37  0.000021    0.11   0.000003   ( 0.000000 -0.000000 -0.001725)
  4  15  2320.48  0.000011    0.05   0.000001   (-0.000000  0.000000  0.001196)
  4  16  2399.07  0.000000    0.00   0.000000   ( 0.000000  0.000000 -0.000000)
  4  17  3951.81  0.000000    0.00   0.000000   ( 0.000000  0.000000 -0.000000)
  4  18  3962.39  0.000008    0.04   0.000001   ( 0.000000 -0.000000 -0.000779)
  4  19  3982.89  0.000000    0.00   0.000000   ( 0.000000 -0.000000 -0.000000)
  4  20  3990.97  0.000001    0.01   0.000000   (-0.000000 -0.000000  0.000335)
  5   5  1755.03  0.000015    0.07   0.000003   ( 0.001620 -0.000000 -0.000000)
  5   6  1754.94  0.000011    0.06   0.000002   ( 0.000000  0.001402  0.000000)
  5   7  1752.12  0.000000    0.00   0.000000   (-0.000000 -0.000000 -0.000000)
  5   8  1874.38  0.000013    0.07   0.000002   ( 0.001468 -0.000000 -0.000000)
  5   9  1917.90  0.000014    0.07   0.000002   ( 0.000000  0.001498 -0.000000)
  5  10  1956.79  0.000000    0.00   0.000000   (-0.000156  0.000000 -0.000000)
  5  11  2021.44  0.000000    0.00   0.000000   ( 0.000177  0.000000 -0.000000)
  5  12  2062.36  0.000009    0.05   0.000001   (-0.000000 -0.001194 -0.000000)
  5  13  2132.45  0.000002    0.01   0.000000   ( 0.000000  0.000517 -0.000000)
  5  14  2268.76  0.000001    0.01   0.000000   ( 0.000425 -0.000000 -0.000000)
  5  15  2358.89  0.000003    0.01   0.000000   (-0.000593  0.000000  0.000000)
  5  16  2442.01  0.000003    0.02   0.000000   ( 0.000000  0.000654 -0.000000)
  5  17  3993.04  0.000010    0.05   0.000001   ( 0.000000  0.000863  0.000000)
  5  18  4003.85  0.000015    0.08   0.000001   (-0.001083 -0.000000 -0.000000)
  5  19  4024.69  0.000044    0.22   0.000003   ( 0.000000 -0.001844  0.000000)
  5  20  4032.80  0.000039    0.20   0.000003   (-0.001732  0.000000  0.000000)
  6   6  1755.56  0.000000    0.00   0.000000   (-0.000008  0.000000 -0.000000)
  6   7  1751.85  0.000009    0.04   0.000002   (-0.000000 -0.000000  0.001248)
  6   8  1873.29  0.000006    0.03   0.000001   ( 0.000000  0.000958  0.000000)
  6   9  1917.34  0.000000    0.00   0.000000   (-0.000129  0.000000  0.000000)
  6  10  1956.98  0.000002    0.01   0.000000   (-0.000000 -0.000581  0.000000)
  6  11  2020.99  0.000007    0.04   0.000001   ( 0.000000 -0.001038  0.000000)
  6  12  2063.64  0.000003    0.01   0.000000   ( 0.000639 -0.000000  0.000000)
  6  13  2132.96  0.000001    0.01   0.000000   (-0.000395  0.000000  0.000000)
  6  14  2266.86  0.000020    0.10   0.000003   ( 0.000000  0.001648  0.000000)
  6  15  2359.29  0.000004    0.02   0.000001   (-0.000000 -0.000720  0.000000)
  6  16  2442.13  0.000007    0.04   0.000001   (-0.000943  0.000000  0.000000)
  6  17  3993.11  0.000075    0.38   0.000006   (-0.002425  0.000000  0.000000)
  6  18  4003.62  0.000140    0.71   0.000011   (-0.000000  0.003307  0.000000)
  6  19  4024.84  0.000065    0.33   0.000005   (-0.002248 -0.000000 -0.000000)
  6  20  4032.85  0.000003    0.01   0.000000   (-0.000000 -0.000443  0.000000)
  7   7  1743.61  0.000262    1.32   0.000047   ( 0.006845  0.000000  0.000000)
  7   8  1871.39  0.000000    0.00   0.000000   ( 0.000000  0.000000  0.000000)
  7   9  1914.77  0.000011    0.06   0.000002   (-0.000000 -0.000000 -0.001340)
  7  10  1954.92  0.000000    0.00   0.000000   ( 0.000000  0.000000  0.000000)
  7  11  2017.59  0.000000    0.00   0.000000   ( 0.000000  0.000000 -0.000000)
  7  12  2061.18  0.000070    0.36   0.000011   (-0.000000 -0.000000 -0.003266)
  7  13  2130.22  0.000002    0.01   0.000000   ( 0.000000  0.000000 -0.000487)
  7  14  2265.41  0.000000    0.00   0.000000   ( 0.000000  0.000000  0.000000)
  7  15  2348.19  0.000000    0.00   0.000000   ( 0.000000 -0.000000  0.000000)
  7  16  2438.21  0.000014    0.07   0.000002   (-0.000000  0.000000 -0.001340)
  7  17  3983.83  0.000006    0.03   0.000000   (-0.000000  0.000000 -0.000679)
  7  18  3994.66  0.000000    0.00   0.000000   (-0.000000 -0.000000  0.000000)
  7  19  4019.86  0.000000    0.00   0.000000   ( 0.000000  0.000000  0.000175)
  7  20  4027.39  0.000000    0.00   0.000000   ( 0.000000  0.000000 -0.000000)
  8   8  1993.99  0.000059    0.30   0.000009   ( 0.003029 -0.000000 -0.000000)
  8   9  2035.69  0.000059    0.30   0.000009   ( 0.000000  0.003001 -0.000000)
  8  10  2075.78  0.000001    0.00   0.000000   ( 0.000353  0.000000  0.000000)
  8  11  2139.73  0.000011    0.05   0.000002   (-0.001252  0.000000 -0.000000)
  8  12  2182.45  0.000051    0.26   0.000007   ( 0.000000  0.002700 -0.000000)
  8  13  2251.10  0.000043    0.22   0.000006   ( 0.000000 -0.002455 -0.000000)
  8  14  2384.12  0.000005    0.03   0.000001   ( 0.000842  0.000000 -0.000000)
  8  15  2480.34  0.000005    0.03   0.000001   (-0.000824 -0.000000  0.000000)
  8  16  2562.12  0.000026    0.13   0.000003   (-0.000000  0.001772 -0.000000)
  8  17  4107.74  0.000002    0.01   0.000000   ( 0.000000  0.000433  0.000000)
  8  18  4118.58  0.000004    0.02   0.000000   (-0.000543  0.000000 -0.000000)
  8  19  4143.09  0.000007    0.04   0.000001   (-0.000000 -0.000751  0.000000)
  8  20  4150.82  0.000000    0.00   0.000000   (-0.000043 -0.000000 -0.000000)
  9   9  2079.92  0.000006    0.03   0.000001   ( 0.000926  0.000000 -0.000000)
  9  10  2120.05  0.000081    0.41   0.000012   (-0.000000 -0.003458 -0.000000)
  9  11  2183.94  0.000005    0.02   0.000001   (-0.000000 -0.000802 -0.000000)
  9  12  2224.64  0.000000    0.00   0.000000   (-0.000072  0.000000 -0.000000)
  9  13  2293.77  0.000023    0.12   0.000003   (-0.001778 -0.000000  0.000000)
  9  14  2429.21  0.000024    0.12   0.000003   ( 0.000000 -0.001748 -0.000000)
  9  15  2521.76  0.000021    0.11   0.000003   (-0.000000  0.001623  0.000000)
  9  16  2602.94  0.000027    0.14   0.000003   ( 0.001807  0.000000 -0.000000)
  9  17  4152.29  0.000000    0.00   0.000000   ( 0.000028 -0.000000  0.000000)
  9  18  4162.90  0.000022    0.11   0.000002   (-0.000000 -0.001276 -0.000000)
  9  19  4185.55  0.000037    0.19   0.000003   ( 0.001656  0.000000 -0.000000)
  9  20  4193.47  0.000051    0.26   0.000004   ( 0.000000  0.001939  0.000000)
 10  10  2158.12  0.000002    0.01   0.000000   ( 0.000481 -0.000000  0.000000)
 10  11  2223.02  0.000006    0.03   0.000001   (-0.000944 -0.000000 -0.000000)
 10  12  2259.20  0.000001    0.00   0.000000   (-0.000000  0.000312  0.000000)
 10  13  2335.07  0.000013    0.07   0.000002   (-0.000000 -0.001320  0.000000)
 10  14  2470.89  0.000017    0.08   0.000002   (-0.001450  0.000000  0.000000)
 10  15  2563.76  0.000000    0.00   0.000000   (-0.000111 -0.000000  0.000000)
 10  16  2646.63  0.000017    0.09   0.000002   (-0.000000 -0.001436  0.000000)
 10  17  4195.30  0.000008    0.04   0.000001   ( 0.000000  0.000776 -0.000000)
 10  18  4205.83  0.000000    0.00   0.000000   (-0.000007 -0.000000 -0.000000)
 10  19  4225.48  0.000035    0.18   0.000003   ( 0.000000 -0.001608 -0.000000)
 10  20  4233.64  0.000003    0.01   0.000000   (-0.000462 -0.000000 -0.000000)
 11  11  2287.17  0.000000    0.00   0.000000   ( 0.000219  0.000000 -0.000000)
 11  12  2329.62  0.000007    0.03   0.000001   ( 0.000000  0.000939  0.000000)
 11  13  2397.65  0.000007    0.03   0.000001   ( 0.000000 -0.000926 -0.000000)
 11  14  2531.41  0.000005    0.02   0.000001   (-0.000770 -0.000000  0.000000)
 11  15  2624.81  0.000004    0.02   0.000001   ( 0.000729  0.000000  0.000000)
 11  16  2708.16  0.000001    0.00   0.000000   ( 0.000000 -0.000254  0.000000)
 11  17  4260.10  0.000019    0.10   0.000001   ( 0.000000  0.001185  0.000000)
 11  18  4270.84  0.000019    0.10   0.000001   (-0.001190 -0.000000 -0.000000)
 11  19  4289.40  0.000001    0.00   0.000000   ( 0.000000  0.000262  0.000000)
 11  20  4297.79  0.000000    0.00   0.000000   ( 0.000081  0.000000 -0.000000)
 12  12  2365.80  0.000201    1.01   0.000026   ( 0.005143 -0.000000  0.000000)
 12  13  2440.99  0.000025    0.13   0.000003   ( 0.001793 -0.000000  0.000000)
 12  14  2578.38  0.000100    0.50   0.000012   (-0.000000 -0.003471 -0.000000)
 12  15  2670.01  0.000126    0.64   0.000015   (-0.000000  0.003841  0.000000)
 12  16  2754.13  0.000093    0.47   0.000011   ( 0.003245 -0.000000  0.000000)
 12  17  4302.99  0.000000    0.00   0.000000   ( 0.000127 -0.000000 -0.000000)
 12  18  4313.43  0.000021    0.11   0.000002   ( 0.000000 -0.001235 -0.000000)
 12  19  4332.53  0.000004    0.02   0.000000   ( 0.000504 -0.000000  0.000000)
 12  20  4340.69  0.000080    0.40   0.000006   (-0.000000  0.002396 -0.000000)
 13  13  2509.24  0.000003    0.01   0.000000   ( 0.000587 -0.000000  0.000000)
 13  14  2643.61  0.000014    0.07   0.000002   (-0.000000 -0.001270  0.000000)
 13  15  2733.14  0.000005    0.03   0.000001   (-0.000000  0.000787 -0.000000)
 13  16  2816.77  0.000003    0.01   0.000000   ( 0.000570 -0.000000  0.000000)
 13  17  4369.34  0.000000    0.00   0.000000   (-0.000165 -0.000000 -0.000000)
 13  18  4380.47  0.000001    0.01   0.000000   (-0.000000 -0.000299 -0.000000)
 13  19  4399.75  0.000026    0.13   0.000002   ( 0.001346 -0.000000 -0.000000)
 13  20  4407.00  0.000005    0.03   0.000000   ( 0.000000  0.000612 -0.000000)
 14  14  2775.73  0.000001    0.00   0.000000   (-0.000246  0.000000  0.000000)
 14  15  2873.10  0.000038    0.19   0.000004   ( 0.002028 -0.000000 -0.000000)
 14  16  2948.39  0.000002    0.01   0.000000   (-0.000000 -0.000500 -0.000000)
 14  17  4514.34  0.000031    0.15   0.000002   (-0.000000 -0.001453  0.000000)
 14  18  4523.03  0.000000    0.00   0.000000   (-0.000053  0.000000  0.000000)
 14  19  4539.00  0.000045    0.23   0.000003   (-0.000000  0.001753  0.000000)
 14  20  4547.86  0.000038    0.19   0.000003   ( 0.001610 -0.000000 -0.000000)
 15  15  2956.87  0.000017    0.09   0.000002   (-0.001356 -0.000000 -0.000000)
 15  16  3031.84  0.000002    0.01   0.000000   (-0.000000  0.000487  0.000000)
 15  17  4600.74  0.000009    0.04   0.000001   ( 0.000000  0.000772 -0.000000)
 15  18  4612.33  0.000000    0.00   0.000000   (-0.000077 -0.000000  0.000000)
 15  19  4638.22  0.000024    0.12   0.000002   ( 0.000000 -0.001278 -0.000000)
 15  20  4645.22  0.000000    0.00   0.000000   (-0.000042 -0.000000 -0.000000)
 16  16  3117.10  0.000000    0.00   0.000000   ( 0.000068 -0.000000 -0.000000)
 16  17  4687.87  0.000008    0.04   0.000001   ( 0.000742 -0.000000  0.000000)
 16  18  4699.88  0.000006    0.03   0.000000   (-0.000000 -0.000628  0.000000)
 16  19  4720.85  0.000001    0.00   0.000000   ( 0.000228  0.000000 -0.000000)
 16  20  4734.42  0.000001    0.01   0.000000   ( 0.000000 -0.000261  0.000000)
 17  17  6186.99  0.000132    0.67   0.000007   ( 0.002582  0.000000 -0.000000)
 17  18  6157.66  0.000194    0.98   0.000010   (-0.000000 -0.003136  0.000000)
 17  19  6242.36  0.000084    0.42   0.000004   ( 0.002049 -0.000000  0.000000)
 17  20  6243.94  0.000015    0.08   0.000001   ( 0.000000  0.000876 -0.000000)
 18  18  6214.39  0.000061    0.31   0.000003   ( 0.001748  0.000000  0.000000)
 18  19  6246.49  0.000036    0.18   0.000002   ( 0.000000  0.001338 -0.000000)
 18  20  6249.62  0.000087    0.44   0.000004   ( 0.002082  0.000000  0.000000)
 19  19  6250.24  0.000031    0.16   0.000002   (-0.001249  0.000000  0.000000)
 19  20  6218.65  0.000335    1.69   0.000017   (-0.000000 -0.004097  0.000000)
 20  20  6272.22  0.000022    0.11   0.000001   (-0.001052 -0.000000  0.000000)


============================== End =============================


--------------------------------
SUGGESTED CITATIONS FOR THIS RUN
--------------------------------

Below you find a list of papers that are relevant to this ORCA run
We neither can nor want to force you to cite these papers, but we appreciate if you do
You receive ORCA, which is the product of decades of hard work by many enthusiastic individuals, for free
The only thing we kindly ask in return is that you cite our papers,
We deeply appreciate it, if you show your appreciation for ORCA by not just citing the generic ORCA reference.

Please note that relegating all ORCA citations to the supporting information does *not* help us.
SI sections are not indexed - citations you put there will not count into any citation statistics
But we need these citations in order to attract the funding resources that allow us to do what we are doing

Therefore, if you are a happy ORCA user, please consider citing a few of the papers listed below in the main body of your paper

In addition to the list printed below, the program has created the file VPT2_furan_vpt2.bibtex that contains the list in bibtex format
You can import this file easily into all common literature databanks and citation aid programs


List of essential papers. We consider these as the minimum necessary citations

  1. Neese, F.
     Software update: the ORCA program system, version 6.0
     WIRES Comput. Molec. Sci. 2025 15(1), e70019
     doi.org/10.1002/wcms.7019

List of papers to cite with high priority. The work reported in these papers was absolutely
necessary for this run to complete.
Our perspective: the developers of density functionals and basis sets usually get cited in chemistry papers
Good! But without the algorithms to do something with them, the functionals or basis sets would not do anything.
Hence, in our opinion, the algorithm design and method developments papers are equally worthy of getting cited

  1. Neese, F.
     An improvement of the resolution of the identity approximation for the formation of the Coulomb matrix
     J. Comp. Chem. 2003 24(14), 1740-1747
     doi.org/10.1002/jcc.10318
  2. Neese, F.; Wennmohs, F.; Hansen, A.; Becker, U.
     Efficient, approximate and parallel Hartree-Fock and hybrid DFT calculations. A 'chain-of-spheres' algorithm for the Hartree-Fock exchange
     Chem. Phys. 2009 356(1-3), 98-109
     doi.org/10.1016/j.chemphys.2008.10.036
  3. Helmich-Paris, B.; de Souza, B.; Neese, F.; Izsák, R.
     An improved chain of spheres for exchange algorithm
     J. Chem. Phys. 2021 155(10), 104109
     doi.org/10.1063/5.0058766
  4. Neese, F.
     The SHARK Integral Generation and Digestion System
     J. Comp. Chem. 2022 44(3), 381
     doi.org/10.1002/jcc.26942

List of suggested additional citations. These are papers that are important in the 'surrounding' of 
of this run, or papers that preceded the highly important papers. If you like your results we are grateful for a citation.

  1. Mills, I.M.
     Molecular Spectroscopy: Modern Research
     In:Rao, K.N.; Matthews, C.W. (Eds)
     Academic, New York 1972 115-140
  2. Izsak, R.; Neese, F.
     An overlap fitted chain of spheres exchange method
     J. Chem. Phys. 2011 135 , 144105
     doi.org/10.1063/1.3646921
  3. Izsak, R.; Hansen, A.; Neese, F.
     The resolution of identity and chain of spheres approximations for the LPNO-CCSD singles Fock term
     Molec. Phys. 2012 110 , 2413-2417
     doi.org/10.1080/00268976.2012.687466
  4. Neese, F.
     The ORCA program system
     WIRES Comput. Molec. Sci. 2012 2(1), 73-78
     doi.org/10.1002/wcms.81
  5. Izsak, R.; Neese, F.; Klopper, W.
     Robust fitting techniques in the chain of spheres approximation to the Fock exchange: The role of the complementary space
     J. Chem. Phys. 2013 139 , 
     doi.org/10.1063/1.4819264
  6. Barone, V.; Biczysko, M.; Bloino, J.
     Fully anharmonic IR and Raman spectra of medium-size molecular 
      systems: accuracy and interpretation
     Phys. Chem. Chem. Phys. 2014 16 , 1759-1787
     doi.org/10.1039/C3CP53413H
  7. Neese, F.
     Software update: the ORCA program system, version 4.0
     WIRES Comput. Molec. Sci. 2018 8(1), 1-6
     doi.org/10.1002/wcms.1327
  8. Neese, F.; Wennmohs, F.; Becker, U.; Riplinger, C.
     The ORCA quantum chemistry program package
     J. Chem. Phys. 2020 152(22), 224108
     doi.org/10.1063/5.0004608
  9. Franke, P.R.; Stanton, J.F.; Douberly, G.E.
     How to VPT2: Accurate and Intuitive Simulations of CH Stretching 
     Infrared Spectra Using VPT2+K with Large Effective Hamiltonian 
     Resonance Treatments
     J. Phys. Chem. A 2021 125(6), 1301-1324
     doi.org/10.1021/acs.jpca.0c09526
 10. Neese, F.
     Software update: The ORCA program system—Version 5.0
     WIRES Comput. Molec. Sci. 2022 12(1), e1606
     doi.org/10.1002/wcms.1606

List of optional additional citations

  1. Waston, J.K.
     Determination of Centrifugal Distortion Coefficients of Asymmetric-Top Molecules
     J. Chem. Phys. 1967 46 , 1035
     doi.org/10.1063/1.1840957
  2. Amos, R.D.; Handy, N.C.; Green, W.H.; Jayatilaka, D.; Willetts, A.; Palmieri, P.
     Anharmonic vibrational properties of CH2F2 : 
     A comparison of theory and experiment
     J. Chem. Phys. 1991 95 , 8323-8336
     doi.org/10.1063/1.461259
  3. Neese, F.
     Approximate second-order SCF convergence for spin unrestricted wavefunctions
     Chem. Phys. Lett. 2000 325(1-3), 93-98
     doi.org/10.1016/s0009-2614(00)00662-x

Timings for individual modules:

Sum of individual times          ...       24.759 sec (=   0.413 min)
Startup calculation              ...        1.997 sec (=   0.033 min)   8.1 %
SCF iterations                   ...       20.125 sec (=   0.335 min)  81.3 %
Property calculations            ...        2.637 sec (=   0.044 min)  10.7 %
                             ****ORCA TERMINATED NORMALLY****
TOTAL RUN TIME: 0 days 0 hours 10 minutes 41 seconds 263 msec
