
                                 *****************
                                 * O   R   C   A *
                                 *****************

                                            #,                                       
                                            ###                                      
                                            ####                                     
                                            #####                                    
                                            ######                                   
                                           ########,                                 
                                     ,,################,,,,,                         
                               ,,#################################,,                 
                          ,,##########################################,,             
                       ,#########################################, ''#####,          
                    ,#############################################,,   '####,        
                  ,##################################################,,,,####,       
                ,###########''''           ''''###############################       
              ,#####''   ,,,,##########,,,,          '''####'''          '####       
            ,##' ,,,,###########################,,,                        '##       
           ' ,,###''''                  '''############,,,                           
         ,,##''                                '''############,,,,        ,,,,,,###''
      ,#''                                            '''#######################'''  
     '                                                          ''''####''''         
             ,#######,   #######,   ,#######,      ##                                
            ,#'     '#,  ##    ##  ,#'     '#,    #''#        ######   ,####,        
            ##       ##  ##   ,#'  ##            #'  '#       #        #'  '#        
            ##       ##  #######   ##           ,######,      #####,   #    #        
            '#,     ,#'  ##    ##  '#,     ,#' ,#      #,         ##   #,  ,#        
             '#######'   ##     ##  '#######'  #'      '#     #####' # '####'        



                  #######################################################
                  #                        -***-                        #
                  #          Department of theory and spectroscopy      #
                  #    Directorship and core code : Frank Neese         #
                  #        Max Planck Institute fuer Kohlenforschung    #
                  #                Kaiser Wilhelm Platz 1               #
                  #                 D-45470 Muelheim/Ruhr               #
                  #                      Germany                        #
                  #                                                     #
                  #                  All rights reserved                #
                  #                        -***-                        #
                  #######################################################


                         Program Version 5.0.4 -  RELEASE  -


 With contributions from (in alphabetic order):
   Daniel Aravena         : Magnetic Suceptibility
   Michael Atanasov       : Ab Initio Ligand Field Theory (pilot matlab implementation)
   Alexander A. Auer      : GIAO ZORA, VPT2 properties, NMR spectrum
   Ute Becker             : Parallelization
   Giovanni Bistoni       : ED, misc. LED, open-shell LED, HFLD
   Martin Brehm           : Molecular dynamics
   Dmytro Bykov           : SCF Hessian
   Vijay G. Chilkuri      : MRCI spin determinant printing, contributions to CSF-ICE
   Dipayan Datta          : RHF DLPNO-CCSD density
   Achintya Kumar Dutta   : EOM-CC, STEOM-CC
   Dmitry Ganyushin       : Spin-Orbit,Spin-Spin,Magnetic field MRCI
   Miquel Garcia          : C-PCM and meta-GGA Hessian, CC/C-PCM, Gaussian charge scheme
   Yang Guo               : DLPNO-NEVPT2, F12-NEVPT2, CIM, IAO-localization
   Andreas Hansen         : Spin unrestricted coupled pair/coupled cluster methods
   Benjamin Helmich-Paris : MC-RPA, TRAH-SCF, COSX integrals
   Lee Huntington         : MR-EOM, pCC
   Robert Izsak           : Overlap fitted RIJCOSX, COSX-SCS-MP3, EOM
   Marcus Kettner         : VPT2
   Christian Kollmar      : KDIIS, OOCD, Brueckner-CCSD(T), CCSD density, CASPT2, CASPT2-K
   Simone Kossmann        : Meta GGA functionals, TD-DFT gradient, OOMP2, MP2 Hessian
   Martin Krupicka        : Initial AUTO-CI
   Lucas Lang             : DCDCAS
   Marvin Lechner         : AUTO-CI (C++ implementation), FIC-MRCC
   Dagmar Lenk            : GEPOL surface, SMD
   Dimitrios Liakos       : Extrapolation schemes; Compound Job, initial MDCI parallelization
   Dimitrios Manganas     : Further ROCIS development; embedding schemes
   Dimitrios Pantazis     : SARC Basis sets
   Anastasios Papadopoulos: AUTO-CI, single reference methods and gradients
   Taras Petrenko         : DFT Hessian,TD-DFT gradient, ASA, ECA, R-Raman, ABS, FL, XAS/XES, NRVS
   Peter Pinski           : DLPNO-MP2, DLPNO-MP2 Gradient
   Christoph Reimann      : Effective Core Potentials
   Marius Retegan         : Local ZFS, SOC
   Christoph Riplinger    : Optimizer, TS searches, QM/MM, DLPNO-CCSD(T), (RO)-DLPNO pert. Triples
   Tobias Risthaus        : Range-separated hybrids, TD-DFT gradient, RPA, STAB
   Michael Roemelt        : Original ROCIS implementation
   Masaaki Saitow         : Open-shell DLPNO-CCSD energy and density
   Barbara Sandhoefer     : DKH picture change effects
   Avijit Sen             : IP-ROCIS
   Kantharuban Sivalingam : CASSCF convergence, NEVPT2, FIC-MRCI
   Bernardo de Souza      : ESD, SOC TD-DFT
   Georgi Stoychev        : AutoAux, RI-MP2 NMR, DLPNO-MP2 response
   Willem Van den Heuvel  : Paramagnetic NMR
   Boris Wezisla          : Elementary symmetry handling
   Frank Wennmohs         : Technical directorship


 We gratefully acknowledge several colleagues who have allowed us to
 interface, adapt or use parts of their codes:
   Stefan Grimme, W. Hujo, H. Kruse, P. Pracht,  : VdW corrections, initial TS optimization,
                  C. Bannwarth, S. Ehlert          DFT functionals, gCP, sTDA/sTD-DF
   Ed Valeev, F. Pavosevic, A. Kumar             : LibInt (2-el integral package), F12 methods
   Garnet Chan, S. Sharma, J. Yang, R. Olivares  : DMRG
   Ulf Ekstrom                                   : XCFun DFT Library
   Mihaly Kallay                                 : mrcc  (arbitrary order and MRCC methods)
   Jiri Pittner, Ondrej Demel                    : Mk-CCSD
   Frank Weinhold                                : gennbo (NPA and NBO analysis)
   Christopher J. Cramer and Donald G. Truhlar   : smd solvation model
   Lars Goerigk                                  : TD-DFT with DH, B97 family of functionals
   V. Asgeirsson, H. Jonsson                     : NEB implementation
   FAccTs GmbH                                   : IRC, NEB, NEB-TS, DLPNO-Multilevel, CI-OPT
                                                   MM, QMMM, 2- and 3-layer-ONIOM, Crystal-QMMM,
                                                   LR-CPCM, SF, NACMEs, symmetry and pop. for TD-DFT,
                                                   nearIR, NL-DFT gradient (VV10), updates on ESD,
                                                   ML-optimized integration grids
   S Lehtola, MJT Oliveira, MAL Marques          : LibXC Library
   Liviu Ungur et al                             : ANISO software


 Your calculation uses the libint2 library for the computation of 2-el integrals
 For citations please refer to: http://libint.valeyev.net

 Your ORCA version has been built with support for libXC version: 5.1.0
 For citations please refer to: https://tddft.org/programs/libxc/

 This ORCA versions uses:
   CBLAS   interface :  Fast vector & matrix operations
   LAPACKE interface :  Fast linear algebra routines
   SCALAPACK package :  Parallel linear algebra routines
   Shared memory     :  Shared parallel matrices
   BLAS/LAPACK       :  OpenBLAS 0.3.15  USE64BITINT DYNAMIC_ARCH NO_AFFINITY Zen SINGLE_THREADED
        Core in use  :  Zen
   Copyright (c) 2011-2014, The OpenBLAS Project




***************************************
The coordinates will be read from file: OPT_c114-D3_a.xyz
***************************************


================================================================================

----- Orbital basis set information -----
Your calculation utilizes the basis: def2-SVP
   F. Weigend and R. Ahlrichs, Phys. Chem. Chem. Phys. 7, 3297 (2005).

----- AuxJ basis set information -----
Your calculation utilizes the auxiliary basis: def2/J
   F. Weigend, Phys. Chem. Chem. Phys. 8, 1057 (2006).

================================================================================
                                        WARNINGS
                       Please study these warnings very carefully!
================================================================================

INFO   : Checking CIS options ...

WARNING: CIS/ROCIS methods need fully converged wavefunctions
  ===> : Setting SCFConvForced true
         You can overwrite this default with %scf ConvForced false 


INFO   : the flag for use of the SHARK integral package has been found!

================================================================================
                                       INPUT FILE
================================================================================
NAME = ABS_c114-D3_a.inp
|  1> ! B3LYP/G def2-SVP DefGrid3 TightSCF 
|  2> # DFT functional:   B3LYP/G
|  3> # Basis:            def2-SVP
|  4> %maxcore 3000
|  5> %pal nprocs 64
|  6> end
|  7> %base "ABS_c114-D3_a"
|  8> %scf
|  9>       Guess         MORead
| 10>       MOInp         "OPT_c114-D3_a.gbw"
| 11>       MaxIter       1000
| 12>       AutoTRAHIter  20
| 13> end
| 14> %cpcm
| 15>       epsilon 2.568
| 16>       refrac  1.5058
| 17> end
| 18> %tddft
| 19>       TDA     True
| 20>       maxdim  10    # Davidson expansion space = MaxDim * nroots
| 21>                     # Use MaxDim 5-10 for favorable convergence
| 22>       nroots  400 # Setting the number of roots (transitions)
| 23>                       # to be calculated
| 24> end
| 25> *xyzfile 0 1 OPT_c114-D3_a.xyz
| 26> 
| 27>                          ****END OF INPUT****
================================================================================

                       ****************************
                       * Single Point Calculation *
                       ****************************

---------------------------------
CARTESIAN COORDINATES (ANGSTROEM)
---------------------------------
  C      1.089678    6.469017   -0.918433
  C      2.088764    5.606366   -1.532716
  C      1.757061    4.853789   -2.653903
  C      2.897791    5.008281   -0.500920
  C      3.320000    3.647712   -0.577033
  C      2.275813    3.529252   -2.799114
  C      1.287393    2.754903   -3.512035
  C     -1.160053    2.893217   -3.334583
  C      1.266459    1.370852   -3.453316
  C     -1.203792    1.455362   -3.369018
  C      3.517581    0.742203   -0.629910
  C      3.117906    0.712351    1.802853
  C     -1.340311    6.469093   -0.484569
  C      0.250551    6.469058    1.402827
  C     -2.371845    5.606350   -1.042575
  C      0.283096    5.606188    2.575006
  C     -3.177169    4.853907   -0.194764
  C      1.419968    4.853778    2.848544
  C     -1.882778    5.008182   -2.258980
  C     -1.014841    5.008001    2.759568
  C     -2.160017    3.647681   -2.586551
  C     -1.159938    3.647541    3.163340
  C     -3.562666    3.529394   -0.571392
  C      1.286501    3.529260    3.370571
  C     -3.685871    2.755014    0.641116
  C      2.398401    2.754969    2.871417
  C     -2.307700    2.893139    2.671330
  C      3.468180    2.893287    0.662969
  C     -3.624696    1.370916    0.629967
  C      2.358069    1.370871    2.823882
  C     -2.315826    1.455355    2.726521
  C      3.519992    1.455404    0.642331
  C     -2.304516    0.742220   -2.730968
  C     -1.213010    0.742189    3.360840
  C      0.002402    0.712336   -3.600711
  C     -3.120190    0.712359    1.798381
  C      1.340310   -6.469094   -0.484569
  C      2.371844   -5.606351   -1.042576
  C      3.177167   -4.853907   -0.194766
  C      1.882779   -5.008184   -2.258981
  C      2.160013   -3.647682   -2.586545
  C      3.562668   -3.529395   -0.571394
  C      3.685870   -2.755016    0.641117
  C      2.307696   -2.893140    2.671326
  C      3.624689   -1.370918    0.629966
  C      2.315821   -1.455356    2.726517
  C      2.304519   -0.742221   -2.730976
  C     -0.002400   -0.712332   -3.600706
  C     -0.250552   -6.469057    1.402827
  C     -1.089680   -6.469014   -0.918431
  C     -0.283096   -5.606188    2.575006
  C     -2.088764   -5.606363   -1.532715
  C     -1.419968   -4.853778    2.848544
  C     -1.757061   -4.853788   -2.653904
  C      1.014842   -5.008002    2.759571
  C     -2.897793   -5.008279   -0.500920
  C      1.159943   -3.647545    3.163354
  C     -3.319999   -3.647710   -0.577033
  C     -1.286499   -3.529260    3.370571
  C     -2.275813   -3.529252   -2.799118
  C     -2.398401   -2.754968    2.871418
  C     -1.287394   -2.754904   -3.512043
  C     -3.468184   -2.893285    0.662970
  C      1.160046   -2.893215   -3.334568
  C     -2.358070   -1.370870    2.823887
  C     -1.266457   -1.370853   -3.453320
  C     -3.519989   -1.455402    0.642332
  C      1.203796   -1.455362   -3.369030
  C      1.213015   -0.742191    3.360852
  C     -3.517544   -0.742201   -0.629906
  C      3.120183   -0.712361    1.798376
  C     -3.117903   -0.712352    1.802854
  C     -1.330383   -6.468523    0.508129
  C     -2.472882   -5.601321    0.755167
  C     -2.535037   -4.850989    1.915099
  C     -3.080889   -3.519781    1.877960
  C     -0.033899   -2.896774    3.527597
  C     -0.011413   -1.444031    3.576778
  C     -2.328239   -0.681433   -2.758423
  C      1.105253   -6.468507    0.897929
  C      0.225135   -6.468504   -1.406218
  C      1.890284   -5.601159    1.763745
  C      0.582475   -5.601262   -2.519093
  C      2.925949   -4.850954    1.237604
  C     -0.391039   -4.850914   -3.152695
  C      3.166413   -3.519713    1.728730
  C     -0.085859   -3.519684   -3.606537
  C      3.072473   -2.896909   -1.734766
  C     -3.037953   -2.896794   -1.792802
  C      3.103964   -1.444113   -1.778808
  C     -3.092064   -1.444078   -1.798051
  C     -1.225152   -0.681441    3.395630
  C      3.553679   -0.681472   -0.636970
  C     -0.225137    6.468507   -1.406220
  C     -0.582476    5.601261   -2.519093
  C      0.391039    4.850915   -3.152696
  C      0.085859    3.519683   -3.606534
  C      3.037957    2.896795   -1.792801
  C      3.092069    1.444079   -1.798045
  C     -3.553692    0.681471   -0.636973
  C      1.330380    6.468522    0.508127
  C     -1.105255    6.468507    0.897929
  C      2.472880    5.601323    0.755167
  C     -1.890286    5.601161    1.763747
  C      2.535037    4.850991    1.915099
  C     -2.925955    4.850956    1.237607
  C      3.080888    3.519783    1.877959
  C     -3.166407    3.519710    1.728725
  C      0.033900    2.896772    3.527594
  C     -3.072463    2.896906   -1.734759
  C      0.011415    1.444030    3.576787
  C     -3.103971    1.444111   -1.778809
  C      2.328229    0.681432   -2.758405
  C      1.225154    0.681440    3.395630

----------------------------
CARTESIAN COORDINATES (A.U.)
----------------------------
  NO LB      ZA    FRAG     MASS         X           Y           Z
   0 C     6.0000    0    12.011    2.059193   12.224671   -1.735587
   1 C     6.0000    0    12.011    3.947192   10.594496   -2.896413
   2 C     6.0000    0    12.011    3.320363    9.172331   -5.015150
   3 C     6.0000    0    12.011    5.476031    9.464279   -0.946602
   4 C     6.0000    0    12.011    6.273891    6.893177   -1.090434
   5 C     6.0000    0    12.011    4.300663    6.669320   -5.289560
   6 C     6.0000    0    12.011    2.432820    5.206012   -6.636784
   7 C     6.0000    0    12.011   -2.192183    5.467389   -6.301449
   8 C     6.0000    0    12.011    2.393261    2.590534   -6.525822
   9 C     6.0000    0    12.011   -2.274838    2.750236   -6.366521
  10 C     6.0000    0    12.011    6.647266    1.402561   -1.190358
  11 C     6.0000    0    12.011    5.891989    1.346148    3.406898
  12 C     6.0000    0    12.011   -2.532820   12.224815   -0.915703
  13 C     6.0000    0    12.011    0.473472   12.224747    2.650958
  14 C     6.0000    0    12.011   -4.482137   10.594466   -1.970181
  15 C     6.0000    0    12.011    0.534973   10.594160    4.866056
  16 C     6.0000    0    12.011   -6.003978    9.172554   -0.368051
  17 C     6.0000    0    12.011    2.683351    9.172311    5.382968
  18 C     6.0000    0    12.011   -3.557935    9.464092   -4.268853
  19 C     6.0000    0    12.011   -1.917772    9.463750    5.214828
  20 C     6.0000    0    12.011   -4.081840    6.893119   -4.887872
  21 C     6.0000    0    12.011   -2.191965    6.892853    5.977847
  22 C     6.0000    0    12.011   -6.732463    6.669589   -1.079775
  23 C     6.0000    0    12.011    2.431134    6.669335    6.369457
  24 C     6.0000    0    12.011   -6.965287    5.206222    1.211534
  25 C     6.0000    0    12.011    4.532321    5.206136    5.426191
  26 C     6.0000    0    12.011   -4.360920    5.467241    5.048083
  27 C     6.0000    0    12.011    6.553910    5.467520    1.252829
  28 C     6.0000    0    12.011   -6.849683    2.590656    1.190465
  29 C     6.0000    0    12.011    4.456105    2.590571    5.336364
  30 C     6.0000    0    12.011   -4.376276    2.750223    5.152379
  31 C     6.0000    0    12.011    6.651820    2.750314    1.213830
  32 C     6.0000    0    12.011   -4.354903    1.402593   -5.160782
  33 C     6.0000    0    12.011   -2.292256    1.402533    6.351067
  34 C     6.0000    0    12.011    0.004539    1.346120   -6.804357
  35 C     6.0000    0    12.011   -5.896305    1.346164    3.398448
  36 C     6.0000    0    12.011    2.532818  -12.224815   -0.915703
  37 C     6.0000    0    12.011    4.482136  -10.594468   -1.970183
  38 C     6.0000    0    12.011    6.003976   -9.172554   -0.368054
  39 C     6.0000    0    12.011    3.557936   -9.464097   -4.268855
  40 C     6.0000    0    12.011    4.081833   -6.893120   -4.887861
  41 C     6.0000    0    12.011    6.732467   -6.669591   -1.079777
  42 C     6.0000    0    12.011    6.965285   -5.206225    1.211535
  43 C     6.0000    0    12.011    4.360913   -5.467242    5.048075
  44 C     6.0000    0    12.011    6.849670   -2.590659    1.190464
  45 C     6.0000    0    12.011    4.376267   -2.750224    5.152370
  46 C     6.0000    0    12.011    4.354911   -1.402595   -5.160796
  47 C     6.0000    0    12.011   -0.004535   -1.346113   -6.804349
  48 C     6.0000    0    12.011   -0.473475  -12.224746    2.650958
  49 C     6.0000    0    12.011   -2.059196  -12.224665   -1.735584
  50 C     6.0000    0    12.011   -0.534975  -10.594159    4.866057
  51 C     6.0000    0    12.011   -3.947192  -10.594490   -2.896411
  52 C     6.0000    0    12.011   -2.683351   -9.172310    5.382969
  53 C     6.0000    0    12.011   -3.320365   -9.172330   -5.015152
  54 C     6.0000    0    12.011    1.917773   -9.463753    5.214833
  55 C     6.0000    0    12.011   -5.476035   -9.464276   -0.946601
  56 C     6.0000    0    12.011    2.191974   -6.892862    5.977873
  57 C     6.0000    0    12.011   -6.273888   -6.893172   -1.090434
  58 C     6.0000    0    12.011   -2.431132   -6.669335    6.369457
  59 C     6.0000    0    12.011   -4.300664   -6.669320   -5.289567
  60 C     6.0000    0    12.011   -4.532320   -5.206135    5.426194
  61 C     6.0000    0    12.011   -2.432821   -5.206015   -6.636799
  62 C     6.0000    0    12.011   -6.553918   -5.467517    1.252831
  63 C     6.0000    0    12.011    2.192169   -5.467384   -6.301420
  64 C     6.0000    0    12.011   -4.456106   -2.590568    5.336372
  65 C     6.0000    0    12.011   -2.393257   -2.590536   -6.525828
  66 C     6.0000    0    12.011   -6.651816   -2.750311    1.213832
  67 C     6.0000    0    12.011    2.274845   -2.750235   -6.366544
  68 C     6.0000    0    12.011    2.292267   -1.402537    6.351090
  69 C     6.0000    0    12.011   -6.647194   -1.402557   -1.190350
  70 C     6.0000    0    12.011    5.896291   -1.346166    3.398439
  71 C     6.0000    0    12.011   -5.891983   -1.346151    3.406900
  72 C     6.0000    0    12.011   -2.514060  -12.223736    0.960224
  73 C     6.0000    0    12.011   -4.673069  -10.584963    1.427059
  74 C     6.0000    0    12.011   -4.790526   -9.167041    3.619013
  75 C     6.0000    0    12.011   -5.822037   -6.651422    3.548830
  76 C     6.0000    0    12.011   -0.064059   -5.474109    6.666192
  77 C     6.0000    0    12.011   -0.021567   -2.728823    6.759131
  78 C     6.0000    0    12.011   -4.399734   -1.287721   -5.212665
  79 C     6.0000    0    12.011    2.088626  -12.223707    1.696840
  80 C     6.0000    0    12.011    0.425444  -12.223702   -2.657367
  81 C     6.0000    0    12.011    3.572119  -10.584657    3.332996
  82 C     6.0000    0    12.011    1.100718  -10.584851   -4.760396
  83 C     6.0000    0    12.011    5.529243   -9.166974    2.338732
  84 C     6.0000    0    12.011   -0.738958   -9.166900   -5.957731
  85 C     6.0000    0    12.011    5.983653   -6.651294    3.266826
  86 C     6.0000    0    12.011   -0.162250   -6.651239   -6.815368
  87 C     6.0000    0    12.011    5.806133   -5.474364   -3.278232
  88 C     6.0000    0    12.011   -5.740899   -5.474147   -3.387906
  89 C     6.0000    0    12.011    5.865642   -2.728978   -3.361460
  90 C     6.0000    0    12.011   -5.843155   -2.728912   -3.397824
  91 C     6.0000    0    12.011   -2.315202   -1.287737    6.416811
  92 C     6.0000    0    12.011    6.715480   -1.287796   -1.203699
  93 C     6.0000    0    12.011   -0.425447   12.223707   -2.657371
  94 C     6.0000    0    12.011   -1.100720   10.584849   -4.760395
  95 C     6.0000    0    12.011    0.738956    9.166901   -5.957733
  96 C     6.0000    0    12.011    0.162250    6.651237   -6.815361
  97 C     6.0000    0    12.011    5.740907    5.474150   -3.387903
  98 C     6.0000    0    12.011    5.843164    2.728914   -3.397813
  99 C     6.0000    0    12.011   -6.715505    1.287794   -1.203704
 100 C     6.0000    0    12.011    2.514054   12.223735    0.960221
 101 C     6.0000    0    12.011   -2.088629   12.223706    1.696840
 102 C     6.0000    0    12.011    4.673066   10.584966    1.427058
 103 C     6.0000    0    12.011   -3.572124   10.584660    3.332999
 104 C     6.0000    0    12.011    4.790525    9.167045    3.619013
 105 C     6.0000    0    12.011   -5.529253    9.166979    2.338738
 106 C     6.0000    0    12.011    5.822034    6.651425    3.548827
 107 C     6.0000    0    12.011   -5.983642    6.651288    3.266816
 108 C     6.0000    0    12.011    0.064062    5.474105    6.666186
 109 C     6.0000    0    12.011   -5.806113    5.474359   -3.278219
 110 C     6.0000    0    12.011    0.021571    2.728820    6.759149
 111 C     6.0000    0    12.011   -5.865656    2.728975   -3.361462
 112 C     6.0000    0    12.011    4.399715    1.287720   -5.212629
 113 C     6.0000    0    12.011    2.315206    1.287735    6.416810

--------------------------------
INTERNAL COORDINATES (ANGSTROEM)
--------------------------------
 C      0   0   0     0.000000000000     0.00000000     0.00000000
 C      1   0   0     1.455913009089     0.00000000     0.00000000
 C      2   1   0     1.390489483038   119.81460066     0.00000000
 C      2   1   3     1.441121784311   109.21159483   217.47706320
 C      4   2   1     1.426604570979   121.58406114   140.23513063
 C      3   2   1     1.429890284153   119.78158893   217.96266628
 C      6   3   2     1.443899635461   107.37173794   148.11900028
 C      7   6   3     2.457765971014   128.01336064   323.52034257
 C      7   6   3     1.385454501786   121.67931229   200.88983835
 C      8   7   6     1.438932289743    88.41309757   221.96819038
 C      5   4   2     2.912699204475   166.50766667   290.68966776
 C     11   5   4     2.465555869100    89.03561488   288.15924095
 C      1   2   3     2.468417379519   138.56621925    35.77087259
 C      1   2   3     2.468275223105   129.05711315   122.69485562
 C     13   1   2     1.455939153607   129.05661561   346.18912513
 C     14   1   2     1.455886930266   138.55279810   346.17267036
 C     15  13   1     1.390503867190   119.82225706   122.69892517
 C     16  14   1     1.390475613310   119.82626158    35.79587632
 C     15  13   1     1.441051971858   109.21006116   340.16805200
 C     16  14   1     1.441017587734   109.20889485   253.26053842
 C     19  15  13     1.426578157188   121.58307211   140.24951542
 C     20  16  14     1.426511804492   121.58484384   140.25455859
 C     17  15  13     1.429961611901   119.78652878   217.94621530
 C     18  16  14     1.429921195441   119.78409148   217.94437271
 C     23  17  15     1.443960200527   107.37222633   148.11047244
 C     24  18  16     1.443954824639   107.37516209   148.12762628
 C     22  20  16     1.458956002066   118.53564936   212.68996088
 C      5   4   2     1.459012947028   118.54558995   212.68441714
 C     25  23  17     1.385493988677   121.68333125   200.89843002
 C     26  24  18     1.385501001634   121.67703454   200.90551893
 C     27  22  20     1.438865811659   120.54413009   162.51108667
 C     12  11   5     1.435482296493    31.85631573   340.34644717
 C     10   8   7     1.458516690828   120.06983576   152.80627445
 C     31  27  22     1.458482038433   120.06770651     4.24210449
 C      9   7   6     1.432902327736   117.90920284   150.62331021
 C     29  25  23     1.432973966237   117.91066100   150.61803769
 C     11   5   4     7.534218008217   159.19961734     2.94108083
 C     37  11   5     1.455939372184    38.80263896   149.85356114
 C     38  37  11     1.390503529434   119.82226881    58.26166890
 C     38  37  11     1.441051444267   109.21007246   275.73082643
 C     40  38  37     1.426577820343   121.58287667   140.24911514
 C     39  38  37     1.429961239187   119.78666914   217.94613016
 C     42  39  38     1.443961412363   107.37214520   148.11040829
 C     43  42  39     2.457680199019   128.00078837   323.51054426
 C     43  42  39     1.385494170540   121.68321335   200.89880633
 C     44  43  42     1.438865573042    88.41616494   221.97642704
 C      9   7   6     2.462604689916   149.68434691   353.23762727
 C     35   9   7     1.424676369143   117.55100043   177.18135595
 C     37  11   5     2.468421546005   101.59438800   314.88773030
 C     49  37  11     2.468273583233    60.00186619   102.28914914
 C     49  37  11     1.455887098451   129.05247219   332.03662506
 C     50  49  37     1.455912524217   129.05719740   229.73035332
 C     51  49  37     1.390475415662   119.82622410   122.70448077
 C     52  50  49     1.390489443864   119.81463778   122.69498984
 C     51  49  37     1.441018055421   109.20893828   340.16904225
 C     52  50  49     1.441121634094   109.21157341   340.17181463
 C     55  51  49     1.426512711182   121.58496338   140.25502771
 C     56  52  50     1.426604648290   121.58394231   140.23497710
 C     53  51  49     1.429920630655   119.78404346   217.94439984
 C     54  52  50     1.429889851465   119.78162583   217.96258284
 C     59  53  51     1.443955235105   107.37516433   148.12767983
 C     60  54  52     1.443900712474   107.37175347   148.11905997
 C     58  56  52     1.459013933432   118.54560618   212.68427265
 C     41  40  38     1.459003686035   118.53459376   212.69284926
 C     61  59  53     1.385501110911   121.67706139   200.90532940
 C     62  60  54     1.385455154843   121.67918660   200.89024962
 C     63  58  56     1.438964496937   120.54116995   162.50959065
 C     48  35   9     1.435505425142   120.98234078     4.18784304
 C     46  44  43     1.458480341022   120.06774945   152.83212931
 C     67  63  58     1.458510186276   120.07113642     4.24553570
 C     12  11   5     1.424720390411    90.50126384   176.39154575
 C     36  29  25     1.424720805855   117.56118658   177.17854600
 C     49  37  11     1.402326701800    90.48352943   102.26897600
 C     56  52  50     1.452584626552   106.58642333   354.89001340
 C     74  56  52     1.382860905549   119.38355619   148.35091160
 C     63  58  56     1.420807618170   118.10496774     4.97067804
 C     59  53  51     1.411986175048   122.56970487     5.15255316
 C     69  46  44     1.427735549001   118.28568684   342.71176752
 C     33  10   8     1.424115557672   119.53330838   180.73193910
 C     37  11   5     1.402338561081    93.84492528   285.11172046
 C     50  49  37     1.402381501175    90.47972279     0.00000000
 C     55  51  49     1.452550300083   106.59054155   354.88747277
 C     40  38  37     1.452649152650   106.58665322   354.88970399
 C     82  55  51     1.382836551609   119.38600450   148.36098172
 C     83  40  38     1.382824311920   119.38529038   148.34680972
 C     44  43  42     1.420730825952    30.43426790    58.05161922
 C     64  41  40     1.420813435768   118.10811328     4.95730302
 C     42  39  38     1.412007298306   122.56911374     5.15381348
 C     60  54  52     1.411924985954   122.57374365     5.16324985
 C     47   9   7     1.427720660353   148.59373153    30.83147628
 C     70  67  63     1.427664552481   118.28264921   342.71387745
 C     34  31  27     1.424106540619   119.53748247   180.71362314
 C     11   5   4     1.424150435216   177.44775819   351.58542226
 C      1   2   3     1.402381971882   119.76248756     4.24239743
 C     19  15  13     1.452648630065   106.58664986   354.88962516
 C     95  19  15     1.382824125328   119.38529457   148.34696061
 C      8   7   6     1.420814425135    30.43275840    58.04028834
 C      6   3   2     1.411924907495   122.57390150     5.16299504
 C     11   5   4     1.427665945434    60.27913310    81.10507870
 C     70  67  63     1.424148899514   119.54548847   180.71353751
 C     14   1   2     1.402326359075    30.48160124    49.69033340
 C     13   1   2     1.402338521229    90.47393653   116.42432226
 C      4   2   1     1.452584253900   106.58644214   354.88991586
 C     20  16  14     1.452550320336   106.59063141   354.88718088
 C    103   4   2     1.382860936329   119.38355258   148.35107494
 C    104  20  16     1.382837201167   119.38596292   148.36120639
 C     28   5   4     1.420806950544   118.10502457     4.97015001
 C     27  22  20     1.420730113129   118.11163997     4.93816463
 C     24  18  16     1.411985948939   122.56967994     5.15270965
 C     23  17  15     1.412006191636   122.56911632     5.15411313
 C     34  31  27     1.427736016503   118.28619416   342.71361089
 C     33  10   8     1.427721010709   118.29177101   342.72650291
 C     47   9   7     1.424114737130    31.08328396     2.12363776
 C     69  46  44     1.424107175797   119.53735686   180.71416752

---------------------------
INTERNAL COORDINATES (A.U.)
---------------------------
 C      0   0   0     0.000000000000     0.00000000     0.00000000
 C      1   0   0     2.751276861992     0.00000000     0.00000000
 C      2   1   0     2.627644315039   119.81460066     0.00000000
 C      2   1   3     2.723325497976   109.21159483   217.47706320
 C      4   2   1     2.695891940551   121.58406114   140.23513063
 C      3   2   1     2.702101038603   119.78158893   217.96266628
 C      6   3   2     2.728574875890   107.37173794   148.11900028
 C      7   6   3     4.644504586488   128.01336064   323.52034257
 C      7   6   3     2.618129579385   121.67931229   200.88983835
 C      8   7   6     2.719187952871    88.41309757   221.96819038
 C      5   4   2     5.504203806948   166.50766667   290.68966776
 C     11   5   4     4.659225360482    89.03561488   288.15924095
 C      1   2   3     4.664632831503   138.56621925    35.77087259
 C      1   2   3     4.664364194811   129.05711315   122.69485562
 C     13   1   2     2.751326267970   129.05661561   346.18912513
 C     14   1   2     2.751227580158   138.55279810   346.17267036
 C     15  13   1     2.627671497147   119.82225706   122.69892517
 C     16  14   1     2.627618105052   119.82626158    35.79587632
 C     15  13   1     2.723193571559   109.21006116   340.16805200
 C     16  14   1     2.723128594981   109.20889485   253.26053842
 C     19  15  13     2.695842025720   121.58307211   140.24951542
 C     20  16  14     2.695716637295   121.58484384   140.25455859
 C     17  15  13     2.702235828513   119.78652878   217.94621530
 C     18  16  14     2.702159452472   119.78409148   217.94437271
 C     23  17  15     2.728689327277   107.37222633   148.11047244
 C     24  18  16     2.728679168321   107.37516209   148.12762628
 C     22  20  16     2.757027285345   118.53564936   212.68996088
 C      5   4   2     2.757134895728   118.54558995   212.68441714
 C     25  23  17     2.618204198794   121.68333125   200.89843002
 C     26  24  18     2.618217451362   121.67703454   200.90551893
 C     27  22  20     2.719062327498   120.54413009   162.51108667
 C     12  11   5     2.712668410464    31.85631573   340.34644717
 C     10   8   7     2.756197107418   120.06983576   152.80627445
 C     31  27  22     2.756131623881   120.06770651     4.24210449
 C      9   7   6     2.707792976079   117.90920284   150.62331021
 C     29  25  23     2.707928353226   117.91066100   150.61803769
 C     11   5   4    14.237608668788   159.19961734     2.94108083
 C     37  11   5     2.751326681021    38.80263896   149.85356114
 C     38  37  11     2.627670858882   119.82226881    58.26166890
 C     38  37  11     2.723192574556   109.21007246   275.73082643
 C     40  38  37     2.695841389174   121.58287667   140.24911514
 C     39  38  37     2.702235124185   119.78666914   217.94613016
 C     42  39  38     2.728691617316   107.37214520   148.11040829
 C     43  42  39     4.644342500908   128.00078837   323.51054426
 C     43  42  39     2.618204542466   121.68321335   200.89880633
 C     44  43  42     2.719061876577    88.41616494   221.97642704
 C      9   7   6     4.653648440052   149.68434691   353.23762727
 C     35   9   7     2.692248167150   117.55100043   177.18135595
 C     37  11   5     4.664640705019   101.59438800   314.88773030
 C     49  37  11     4.664361095903    60.00186619   102.28914914
 C     49  37  11     2.751227897982   129.05247219   332.03662506
 C     50  49  37     2.751275945716   129.05719740   229.73035332
 C     51  49  37     2.627617731551   119.82622410   122.70448077
 C     52  50  49     2.627644241011   119.81463778   122.69498984
 C     51  49  37     2.723129478782   109.20893828   340.16904225
 C     52  50  49     2.723325214108   109.21157341   340.17181463
 C     55  51  49     2.695718350691   121.58496338   140.25502771
 C     56  52  50     2.695892086647   121.58394231   140.23497710
 C     53  51  49     2.702158385182   119.78404346   217.94439984
 C     54  52  50     2.702100220942   119.78162583   217.96258284
 C     59  53  51     2.728679943990   107.37516433   148.12767983
 C     60  54  52     2.728576911149   107.37175347   148.11905997
 C     58  56  52     2.757136759763   118.54560618   212.68427265
 C     41  40  38     2.757117394987   118.53459376   212.69284926
 C     61  59  53     2.618217657866   121.67706139   200.90532940
 C     62  60  54     2.618130813483   121.67918660   200.89024962
 C     63  58  56     2.719248815646   120.54116995   162.50959065
 C     48  35   9     2.712712117276   120.98234078     4.18784304
 C     46  44  43     2.756128416240   120.06774945   152.83212931
 C     67  63  58     2.756184815595   120.07113642     4.24553570
 C     12  11   5     2.692331355291    90.50126384   176.39154575
 C     36  29  25     2.692332140366   117.56118658   177.17854600
 C     49  37  11     2.650013416688    90.48352943   102.26897600
 C     56  52  50     2.744987130528   106.58642333   354.89001340
 C     74  56  52     2.613228392793   119.38355619   148.35091160
 C     63  58  56     2.684937287330   118.10496774     4.97067804
 C     59  53  51     2.668267175724   122.56970487     5.15255316
 C     69  46  44     2.698029179275   118.28568684   342.71176752
 C     33  10   8     2.691188387056   119.53330838   180.73193910
 C     37  11   5     2.650035827480    93.84492528   285.11172046
 C     50  49  37     2.650116972499    90.47972279     0.00000000
 C     55  51  49     2.744922262902   106.59054155   354.88747277
 C     40  38  37     2.745109067181   106.58665322   354.88970399
 C     82  55  51     2.613182370517   119.38600450   148.36098172
 C     83  40  38     2.613159240856   119.38529038   148.34680972
 C     44  43  42     2.684792171068    30.43426790    58.05161922
 C     64  41  40     2.684948280997   118.10811328     4.95730302
 C     42  39  38     2.668307092896   122.56911374     5.15381348
 C     60  54  52     2.668151545093   122.57374365     5.16324985
 C     47   9   7     2.698001043808   148.59373153    30.83147628
 C     70  67  63     2.697895015296   118.28264921   342.71387745
 C     34  31  27     2.691171347296   119.53748247   180.71362314
 C     11   5   4     2.691254296063   177.44775819   351.58542226
 C      1   2   3     2.650117862005   119.76248756     4.24239743
 C     19  15  13     2.745108079639   106.58664986   354.88962516
 C     95  19  15     2.613158888248   119.38529457   148.34696061
 C      8   7   6     2.684950150629    30.43275840    58.04028834
 C      6   3   2     2.668151396827   122.57390150     5.16299504
 C     11   5   4     2.697897647596    60.27913310    81.10507870
 C     70  67  63     2.691251394007   119.54548847   180.71353751
 C     14   1   2     2.650012769030    30.48160124    49.69033340
 C     13   1   2     2.650035752170    90.47393653   116.42432226
 C      4   2   1     2.744986426318   106.58644214   354.88991586
 C     20  16  14     2.744922301175   106.59063141   354.88718088
 C    103   4   2     2.613228450959   119.38355258   148.35107494
 C    104  20  16     2.613183598004   119.38596292   148.36120639
 C     28   5   4     2.684936025700   118.10502457     4.97015001
 C     27  22  20     2.684790824028   118.11163997     4.93816463
 C     24  18  16     2.668266748440   122.56967994     5.15270965
 C     23  17  15     2.668305001593   122.56911632     5.15411313
 C     34  31  27     2.698030062727   118.28619416   342.71361089
 C     33  10   8     2.698001705885   118.29177101   342.72650291
 C     47   9   7     2.691186836456    31.08328396     2.12363776
 C     69  46  44     2.691172547609   119.53735686   180.71416752

---------------------
BASIS SET INFORMATION
---------------------
There are 1 groups of distinct atoms

 Group   1 Type C   : 7s4p1d contracted to 3s2p1d pattern {511/31/1}

Atom   0C    basis set group =>   1
Atom   1C    basis set group =>   1
Atom   2C    basis set group =>   1
Atom   3C    basis set group =>   1
Atom   4C    basis set group =>   1
Atom   5C    basis set group =>   1
Atom   6C    basis set group =>   1
Atom   7C    basis set group =>   1
Atom   8C    basis set group =>   1
Atom   9C    basis set group =>   1
Atom  10C    basis set group =>   1
Atom  11C    basis set group =>   1
Atom  12C    basis set group =>   1
Atom  13C    basis set group =>   1
Atom  14C    basis set group =>   1
Atom  15C    basis set group =>   1
Atom  16C    basis set group =>   1
Atom  17C    basis set group =>   1
Atom  18C    basis set group =>   1
Atom  19C    basis set group =>   1
Atom  20C    basis set group =>   1
Atom  21C    basis set group =>   1
Atom  22C    basis set group =>   1
Atom  23C    basis set group =>   1
Atom  24C    basis set group =>   1
Atom  25C    basis set group =>   1
Atom  26C    basis set group =>   1
Atom  27C    basis set group =>   1
Atom  28C    basis set group =>   1
Atom  29C    basis set group =>   1
Atom  30C    basis set group =>   1
Atom  31C    basis set group =>   1
Atom  32C    basis set group =>   1
Atom  33C    basis set group =>   1
Atom  34C    basis set group =>   1
Atom  35C    basis set group =>   1
Atom  36C    basis set group =>   1
Atom  37C    basis set group =>   1
Atom  38C    basis set group =>   1
Atom  39C    basis set group =>   1
Atom  40C    basis set group =>   1
Atom  41C    basis set group =>   1
Atom  42C    basis set group =>   1
Atom  43C    basis set group =>   1
Atom  44C    basis set group =>   1
Atom  45C    basis set group =>   1
Atom  46C    basis set group =>   1
Atom  47C    basis set group =>   1
Atom  48C    basis set group =>   1
Atom  49C    basis set group =>   1
Atom  50C    basis set group =>   1
Atom  51C    basis set group =>   1
Atom  52C    basis set group =>   1
Atom  53C    basis set group =>   1
Atom  54C    basis set group =>   1
Atom  55C    basis set group =>   1
Atom  56C    basis set group =>   1
Atom  57C    basis set group =>   1
Atom  58C    basis set group =>   1
Atom  59C    basis set group =>   1
Atom  60C    basis set group =>   1
Atom  61C    basis set group =>   1
Atom  62C    basis set group =>   1
Atom  63C    basis set group =>   1
Atom  64C    basis set group =>   1
Atom  65C    basis set group =>   1
Atom  66C    basis set group =>   1
Atom  67C    basis set group =>   1
Atom  68C    basis set group =>   1
Atom  69C    basis set group =>   1
Atom  70C    basis set group =>   1
Atom  71C    basis set group =>   1
Atom  72C    basis set group =>   1
Atom  73C    basis set group =>   1
Atom  74C    basis set group =>   1
Atom  75C    basis set group =>   1
Atom  76C    basis set group =>   1
Atom  77C    basis set group =>   1
Atom  78C    basis set group =>   1
Atom  79C    basis set group =>   1
Atom  80C    basis set group =>   1
Atom  81C    basis set group =>   1
Atom  82C    basis set group =>   1
Atom  83C    basis set group =>   1
Atom  84C    basis set group =>   1
Atom  85C    basis set group =>   1
Atom  86C    basis set group =>   1
Atom  87C    basis set group =>   1
Atom  88C    basis set group =>   1
Atom  89C    basis set group =>   1
Atom  90C    basis set group =>   1
Atom  91C    basis set group =>   1
Atom  92C    basis set group =>   1
Atom  93C    basis set group =>   1
Atom  94C    basis set group =>   1
Atom  95C    basis set group =>   1
Atom  96C    basis set group =>   1
Atom  97C    basis set group =>   1
Atom  98C    basis set group =>   1
Atom  99C    basis set group =>   1
Atom 100C    basis set group =>   1
Atom 101C    basis set group =>   1
Atom 102C    basis set group =>   1
Atom 103C    basis set group =>   1
Atom 104C    basis set group =>   1
Atom 105C    basis set group =>   1
Atom 106C    basis set group =>   1
Atom 107C    basis set group =>   1
Atom 108C    basis set group =>   1
Atom 109C    basis set group =>   1
Atom 110C    basis set group =>   1
Atom 111C    basis set group =>   1
Atom 112C    basis set group =>   1
Atom 113C    basis set group =>   1
---------------------------------
AUXILIARY/J BASIS SET INFORMATION
---------------------------------
There are 1 groups of distinct atoms

 Group   1 Type C   : 12s5p4d2f1g contracted to 6s4p3d1f1g pattern {711111/2111/211/2/1}

Atom   0C    basis set group =>   1
Atom   1C    basis set group =>   1
Atom   2C    basis set group =>   1
Atom   3C    basis set group =>   1
Atom   4C    basis set group =>   1
Atom   5C    basis set group =>   1
Atom   6C    basis set group =>   1
Atom   7C    basis set group =>   1
Atom   8C    basis set group =>   1
Atom   9C    basis set group =>   1
Atom  10C    basis set group =>   1
Atom  11C    basis set group =>   1
Atom  12C    basis set group =>   1
Atom  13C    basis set group =>   1
Atom  14C    basis set group =>   1
Atom  15C    basis set group =>   1
Atom  16C    basis set group =>   1
Atom  17C    basis set group =>   1
Atom  18C    basis set group =>   1
Atom  19C    basis set group =>   1
Atom  20C    basis set group =>   1
Atom  21C    basis set group =>   1
Atom  22C    basis set group =>   1
Atom  23C    basis set group =>   1
Atom  24C    basis set group =>   1
Atom  25C    basis set group =>   1
Atom  26C    basis set group =>   1
Atom  27C    basis set group =>   1
Atom  28C    basis set group =>   1
Atom  29C    basis set group =>   1
Atom  30C    basis set group =>   1
Atom  31C    basis set group =>   1
Atom  32C    basis set group =>   1
Atom  33C    basis set group =>   1
Atom  34C    basis set group =>   1
Atom  35C    basis set group =>   1
Atom  36C    basis set group =>   1
Atom  37C    basis set group =>   1
Atom  38C    basis set group =>   1
Atom  39C    basis set group =>   1
Atom  40C    basis set group =>   1
Atom  41C    basis set group =>   1
Atom  42C    basis set group =>   1
Atom  43C    basis set group =>   1
Atom  44C    basis set group =>   1
Atom  45C    basis set group =>   1
Atom  46C    basis set group =>   1
Atom  47C    basis set group =>   1
Atom  48C    basis set group =>   1
Atom  49C    basis set group =>   1
Atom  50C    basis set group =>   1
Atom  51C    basis set group =>   1
Atom  52C    basis set group =>   1
Atom  53C    basis set group =>   1
Atom  54C    basis set group =>   1
Atom  55C    basis set group =>   1
Atom  56C    basis set group =>   1
Atom  57C    basis set group =>   1
Atom  58C    basis set group =>   1
Atom  59C    basis set group =>   1
Atom  60C    basis set group =>   1
Atom  61C    basis set group =>   1
Atom  62C    basis set group =>   1
Atom  63C    basis set group =>   1
Atom  64C    basis set group =>   1
Atom  65C    basis set group =>   1
Atom  66C    basis set group =>   1
Atom  67C    basis set group =>   1
Atom  68C    basis set group =>   1
Atom  69C    basis set group =>   1
Atom  70C    basis set group =>   1
Atom  71C    basis set group =>   1
Atom  72C    basis set group =>   1
Atom  73C    basis set group =>   1
Atom  74C    basis set group =>   1
Atom  75C    basis set group =>   1
Atom  76C    basis set group =>   1
Atom  77C    basis set group =>   1
Atom  78C    basis set group =>   1
Atom  79C    basis set group =>   1
Atom  80C    basis set group =>   1
Atom  81C    basis set group =>   1
Atom  82C    basis set group =>   1
Atom  83C    basis set group =>   1
Atom  84C    basis set group =>   1
Atom  85C    basis set group =>   1
Atom  86C    basis set group =>   1
Atom  87C    basis set group =>   1
Atom  88C    basis set group =>   1
Atom  89C    basis set group =>   1
Atom  90C    basis set group =>   1
Atom  91C    basis set group =>   1
Atom  92C    basis set group =>   1
Atom  93C    basis set group =>   1
Atom  94C    basis set group =>   1
Atom  95C    basis set group =>   1
Atom  96C    basis set group =>   1
Atom  97C    basis set group =>   1
Atom  98C    basis set group =>   1
Atom  99C    basis set group =>   1
Atom 100C    basis set group =>   1
Atom 101C    basis set group =>   1
Atom 102C    basis set group =>   1
Atom 103C    basis set group =>   1
Atom 104C    basis set group =>   1
Atom 105C    basis set group =>   1
Atom 106C    basis set group =>   1
Atom 107C    basis set group =>   1
Atom 108C    basis set group =>   1
Atom 109C    basis set group =>   1
Atom 110C    basis set group =>   1
Atom 111C    basis set group =>   1
Atom 112C    basis set group =>   1
Atom 113C    basis set group =>   1


           ************************************************************
           *        Program running with 64 parallel MPI-processes    *
           *              working on a shared directory               *
           ************************************************************
------------------------------------------------------------------------------
                           ORCA GTO INTEGRAL CALCULATION
                           -- RI-GTO INTEGRALS CHOSEN --
------------------------------------------------------------------------------
------------------------------------------------------------------------------
                   ___                                                        
                  /   \      - P O W E R E D   B Y -                         
                 /     \                                                     
                 |  |  |   _    _      __       _____    __    __             
                 |  |  |  | |  | |    /  \     |  _  \  |  |  /  |          
                  \  \/   | |  | |   /    \    | | | |  |  | /  /          
                 / \  \   | |__| |  /  /\  \   | |_| |  |  |/  /          
                |  |  |   |  __  | /  /__\  \  |    /   |      \           
                |  |  |   | |  | | |   __   |  |    \   |  |\   \          
                \     /   | |  | | |  |  |  |  | |\  \  |  | \   \       
                 \___/    |_|  |_| |__|  |__|  |_| \__\ |__|  \__/        
                                                                              
                      - O R C A' S   B I G   F R I E N D -                    
                                      &                                       
                       - I N T E G R A L  F E E D E R -                       
                                                                              
 v1 FN, 2020, v2 2021                                                         
------------------------------------------------------------------------------


Reading SHARK input file ABS_c114-D3_a.SHARKINP.tmp ... ok
----------------------
SHARK INTEGRAL PACKAGE
----------------------

Number of atoms                             ...    114
Number of basis functions                   ...   1596
Number of shells                            ...    684
Maximum angular momentum                    ...      2
Integral batch strategy                     ... SHARK/LIBINT Hybrid
RI-J (if used) integral strategy            ... SPLIT-RIJ (Revised 2003 algorithm where possible)
Printlevel                                  ...      1
Contraction scheme used                     ... SEGMENTED contraction
Coulomb Range Separation                    ... NOT USED
Exchange Range Separation                   ... NOT USED
Finite Nucleus Model                        ... NOT USED
Auxiliary Coulomb fitting basis             ... AVAILABLE
   # of basis functions in Aux-J            ...   5586
   # of shells in Aux-J                     ...   1710
   Maximum angular momentum in Aux-J        ...      4
Auxiliary J/K fitting basis                 ... NOT available
Auxiliary Correlation fitting basis         ... NOT available
Auxiliary 'external' fitting basis          ... NOT available
Integral threshold                          ...     2.500000e-11
Primitive cut-off                           ...     2.500000e-12
Primitive pair pre-selection threshold      ...     2.500000e-12

Calculating pre-screening integrals         ... done (  0.0 sec) Dimension = 684
Organizing shell pair data                  ... done (  1.1 sec)
Shell pair information
Total number of shell pairs                 ...    234270
Shell pairs after pre-screening             ...    123916
Total number of primitive shell pairs       ...    937878
Primitive shell pairs kept                  ...    265543
          la=0 lb=0:  29898 shell pairs
          la=1 lb=0:  46076 shell pairs
          la=1 lb=1:  17738 shell pairs
          la=2 lb=0:  15418 shell pairs
          la=2 lb=1:  13124 shell pairs
          la=2 lb=2:   1662 shell pairs

Calculating one electron integrals          ... done (  0.1 sec)
Calculating RI/J V-Matrix + Cholesky decomp.... done (  3.3 sec)
Calculating Nuclear repulsion               ... done (  0.1 sec) ENN=  22744.208369951928 Eh

SHARK setup successfully completed in   6.1 seconds

Maximum memory used throughout the entire GTOINT-calculation: 633.5 MB
[1717650579.224500] [nc30522:2983926:0]          mpool.c:42   UCX  WARN  object 0xaf71f00 was not returned to mpool ucp_requests
[1717650579.224521] [nc30522:2983926:0]          mpool.c:42   UCX  WARN  object 0xaf720c0 was not returned to mpool ucp_requests
[1717650579.224524] [nc30522:2983926:0]          mpool.c:42   UCX  WARN  object 0xaf72280 was not returned to mpool ucp_requests
[1717650579.224527] [nc30522:2983926:0]          mpool.c:42   UCX  WARN  object 0xaf72440 was not returned to mpool ucp_requests
[1717650579.224530] [nc30522:2983926:0]          mpool.c:42   UCX  WARN  object 0xaf72600 was not returned to mpool ucp_requests
[1717650579.224532] [nc30522:2983926:0]          mpool.c:42   UCX  WARN  object 0xaf727c0 was not returned to mpool ucp_requests
[1717650579.224534] [nc30522:2983926:0]          mpool.c:42   UCX  WARN  object 0xaf72980 was not returned to mpool ucp_requests
[1717650579.224537] [nc30522:2983926:0]          mpool.c:42   UCX  WARN  object 0xaf72b40 was not returned to mpool ucp_requests
[1717650579.224539] [nc30522:2983926:0]          mpool.c:42   UCX  WARN  object 0xaf72d00 was not returned to mpool ucp_requests
[1717650579.224541] [nc30522:2983926:0]          mpool.c:42   UCX  WARN  object 0xaf72ec0 was not returned to mpool ucp_requests
[1717650579.224544] [nc30522:2983926:0]          mpool.c:42   UCX  WARN  object 0xaf73080 was not returned to mpool ucp_requests
[1717650579.224546] [nc30522:2983926:0]          mpool.c:42   UCX  WARN  object 0xaf73240 was not returned to mpool ucp_requests
[1717650579.224549] [nc30522:2983926:0]          mpool.c:42   UCX  WARN  object 0xaf73400 was not returned to mpool ucp_requests
[1717650579.224552] [nc30522:2983926:0]          mpool.c:42   UCX  WARN  object 0xaf735c0 was not returned to mpool ucp_requests
[1717650579.224554] [nc30522:2983926:0]          mpool.c:42   UCX  WARN  object 0xaf73780 was not returned to mpool ucp_requests
[1717650579.224556] [nc30522:2983926:0]          mpool.c:42   UCX  WARN  object 0xaf73940 was not returned to mpool ucp_requests
[1717650579.224559] [nc30522:2983926:0]          mpool.c:42   UCX  WARN  object 0xaf73b00 was not returned to mpool ucp_requests
[1717650579.224561] [nc30522:2983926:0]          mpool.c:42   UCX  WARN  object 0xaf73cc0 was not returned to mpool ucp_requests
[1717650579.224564] [nc30522:2983926:0]          mpool.c:42   UCX  WARN  object 0xaf73e80 was not returned to mpool ucp_requests
[1717650579.224566] [nc30522:2983926:0]          mpool.c:42   UCX  WARN  object 0xaf74040 was not returned to mpool ucp_requests
[1717650579.224568] [nc30522:2983926:0]          mpool.c:42   UCX  WARN  object 0xaf74200 was not returned to mpool ucp_requests
[1717650579.224570] [nc30522:2983926:0]          mpool.c:42   UCX  WARN  object 0xaf743c0 was not returned to mpool ucp_requests
[1717650579.229426] [nc30525:1694268:0]          mpool.c:42   UCX  WARN  object 0xab4c900 was not returned to mpool ucp_requests
[1717650579.229447] [nc30525:1694268:0]          mpool.c:42   UCX  WARN  object 0xab4cac0 was not returned to mpool ucp_requests
[1717650579.229453] [nc30525:1694268:0]          mpool.c:42   UCX  WARN  object 0xab4cc80 was not returned to mpool ucp_requests
[1717650579.229457] [nc30525:1694268:0]          mpool.c:42   UCX  WARN  object 0xab4ce40 was not returned to mpool ucp_requests
[1717650579.229461] [nc30525:1694268:0]          mpool.c:42   UCX  WARN  object 0xab4d000 was not returned to mpool ucp_requests
[1717650579.229463] [nc30525:1694268:0]          mpool.c:42   UCX  WARN  object 0xab4d1c0 was not returned to mpool ucp_requests
[1717650579.229468] [nc30525:1694268:0]          mpool.c:42   UCX  WARN  object 0xab4d380 was not returned to mpool ucp_requests
[1717650579.229472] [nc30525:1694268:0]          mpool.c:42   UCX  WARN  object 0xab4d540 was not returned to mpool ucp_requests
[1717650579.229476] [nc30525:1694268:0]          mpool.c:42   UCX  WARN  object 0xab4d700 was not returned to mpool ucp_requests
[1717650579.229479] [nc30525:1694268:0]          mpool.c:42   UCX  WARN  object 0xab4d8c0 was not returned to mpool ucp_requests
[1717650579.229483] [nc30525:1694268:0]          mpool.c:42   UCX  WARN  object 0xab4da80 was not returned to mpool ucp_requests
[1717650579.229487] [nc30525:1694268:0]          mpool.c:42   UCX  WARN  object 0xab4dc40 was not returned to mpool ucp_requests
[1717650579.229490] [nc30525:1694268:0]          mpool.c:42   UCX  WARN  object 0xab4de00 was not returned to mpool ucp_requests
[1717650579.229493] [nc30525:1694268:0]          mpool.c:42   UCX  WARN  object 0xab4dfc0 was not returned to mpool ucp_requests
[1717650579.229495] [nc30525:1694268:0]          mpool.c:42   UCX  WARN  object 0xab4e180 was not returned to mpool ucp_requests
[1717650579.229498] [nc30525:1694268:0]          mpool.c:42   UCX  WARN  object 0xab4e340 was not returned to mpool ucp_requests
[1717650579.229500] [nc30525:1694268:0]          mpool.c:42   UCX  WARN  object 0xab4e500 was not returned to mpool ucp_requests
[1717650579.229503] [nc30525:1694268:0]          mpool.c:42   UCX  WARN  object 0xab4e6c0 was not returned to mpool ucp_requests
[1717650579.229506] [nc30525:1694268:0]          mpool.c:42   UCX  WARN  object 0xab4e880 was not returned to mpool ucp_requests
[1717650579.229509] [nc30525:1694268:0]          mpool.c:42   UCX  WARN  object 0xab4ea40 was not returned to mpool ucp_requests
[1717650579.229511] [nc30525:1694268:0]          mpool.c:42   UCX  WARN  object 0xab4ec00 was not returned to mpool ucp_requests
[1717650579.229512] [nc30525:1694267:0]          mpool.c:42   UCX  WARN  object 0xc0db840 was not returned to mpool ucp_requests
[1717650579.229529] [nc30525:1694267:0]          mpool.c:42   UCX  WARN  object 0xc0dba00 was not returned to mpool ucp_requests
[1717650579.229534] [nc30525:1694267:0]          mpool.c:42   UCX  WARN  object 0xc0dbbc0 was not returned to mpool ucp_requests
[1717650579.229538] [nc30525:1694267:0]          mpool.c:42   UCX  WARN  object 0xc0dbd80 was not returned to mpool ucp_requests
[1717650579.229541] [nc30525:1694267:0]          mpool.c:42   UCX  WARN  object 0xc0dbf40 was not returned to mpool ucp_requests
[1717650579.229544] [nc30525:1694267:0]          mpool.c:42   UCX  WARN  object 0xc0dc100 was not returned to mpool ucp_requests
[1717650579.229548] [nc30525:1694267:0]          mpool.c:42   UCX  WARN  object 0xc0dc2c0 was not returned to mpool ucp_requests
[1717650579.229553] [nc30525:1694267:0]          mpool.c:42   UCX  WARN  object 0xc0dc480 was not returned to mpool ucp_requests
[1717650579.229557] [nc30525:1694267:0]          mpool.c:42   UCX  WARN  object 0xc0dc640 was not returned to mpool ucp_requests
[1717650579.229560] [nc30525:1694267:0]          mpool.c:42   UCX  WARN  object 0xc0dc800 was not returned to mpool ucp_requests
[1717650579.229563] [nc30525:1694267:0]          mpool.c:42   UCX  WARN  object 0xc0dc9c0 was not returned to mpool ucp_requests
[1717650579.229566] [nc30525:1694267:0]          mpool.c:42   UCX  WARN  object 0xc0dcb80 was not returned to mpool ucp_requests
[1717650579.229568] [nc30525:1694267:0]          mpool.c:42   UCX  WARN  object 0xc0dcd40 was not returned to mpool ucp_requests
[1717650579.229571] [nc30525:1694267:0]          mpool.c:42   UCX  WARN  object 0xc0dcf00 was not returned to mpool ucp_requests
[1717650579.229574] [nc30525:1694267:0]          mpool.c:42   UCX  WARN  object 0xc0dd0c0 was not returned to mpool ucp_requests
[1717650579.229576] [nc30525:1694267:0]          mpool.c:42   UCX  WARN  object 0xc0dd280 was not returned to mpool ucp_requests
[1717650579.229579] [nc30525:1694267:0]          mpool.c:42   UCX  WARN  object 0xc0dd440 was not returned to mpool ucp_requests
[1717650579.229581] [nc30525:1694267:0]          mpool.c:42   UCX  WARN  object 0xc0dd600 was not returned to mpool ucp_requests
[1717650579.229584] [nc30525:1694267:0]          mpool.c:42   UCX  WARN  object 0xc0dd7c0 was not returned to mpool ucp_requests
[1717650579.229587] [nc30525:1694267:0]          mpool.c:42   UCX  WARN  object 0xc0dd980 was not returned to mpool ucp_requests
[1717650579.229590] [nc30525:1694267:0]          mpool.c:42   UCX  WARN  object 0xc0ddb40 was not returned to mpool ucp_requests
[1717650579.237306] [nc30523:3504437:0]          mpool.c:42   UCX  WARN  object 0xb543840 was not returned to mpool ucp_requests
[1717650579.246151] [nc30508:489340:0]          mpool.c:42   UCX  WARN  object 0xbd63f00 was not returned to mpool ucp_requests
[1717650579.246168] [nc30508:489340:0]          mpool.c:42   UCX  WARN  object 0xbd640c0 was not returned to mpool ucp_requests
[1717650579.246173] [nc30508:489340:0]          mpool.c:42   UCX  WARN  object 0xbd64280 was not returned to mpool ucp_requests
[1717650579.246177] [nc30508:489340:0]          mpool.c:42   UCX  WARN  object 0xbd64440 was not returned to mpool ucp_requests
[1717650579.246181] [nc30508:489340:0]          mpool.c:42   UCX  WARN  object 0xbd64600 was not returned to mpool ucp_requests
[1717650579.246183] [nc30508:489340:0]          mpool.c:42   UCX  WARN  object 0xbd647c0 was not returned to mpool ucp_requests
[1717650579.246186] [nc30508:489340:0]          mpool.c:42   UCX  WARN  object 0xbd64980 was not returned to mpool ucp_requests
[1717650579.246189] [nc30508:489340:0]          mpool.c:42   UCX  WARN  object 0xbd64b40 was not returned to mpool ucp_requests
[1717650579.246193] [nc30508:489340:0]          mpool.c:42   UCX  WARN  object 0xbd64d00 was not returned to mpool ucp_requests
[1717650579.246196] [nc30508:489340:0]          mpool.c:42   UCX  WARN  object 0xbd64ec0 was not returned to mpool ucp_requests
[1717650579.246200] [nc30508:489340:0]          mpool.c:42   UCX  WARN  object 0xbd65080 was not returned to mpool ucp_requests
[1717650579.246203] [nc30508:489340:0]          mpool.c:42   UCX  WARN  object 0xbd65240 was not returned to mpool ucp_requests
[1717650579.246207] [nc30508:489340:0]          mpool.c:42   UCX  WARN  object 0xbd65400 was not returned to mpool ucp_requests
[1717650579.246211] [nc30508:489340:0]          mpool.c:42   UCX  WARN  object 0xbd655c0 was not returned to mpool ucp_requests
[1717650579.246214] [nc30508:489340:0]          mpool.c:42   UCX  WARN  object 0xbd65780 was not returned to mpool ucp_requests
[1717650579.246218] [nc30508:489340:0]          mpool.c:42   UCX  WARN  object 0xbd65940 was not returned to mpool ucp_requests
[1717650579.246221] [nc30508:489340:0]          mpool.c:42   UCX  WARN  object 0xbd65b00 was not returned to mpool ucp_requests
[1717650579.246225] [nc30508:489340:0]          mpool.c:42   UCX  WARN  object 0xbd65cc0 was not returned to mpool ucp_requests
[1717650579.246229] [nc30508:489340:0]          mpool.c:42   UCX  WARN  object 0xbd65e80 was not returned to mpool ucp_requests
[1717650579.246239] [nc30508:489340:0]          mpool.c:42   UCX  WARN  object 0xbd66040 was not returned to mpool ucp_requests
[1717650579.246242] [nc30508:489340:0]          mpool.c:42   UCX  WARN  object 0xbd66200 was not returned to mpool ucp_requests
[1717650579.247048] [nc30508:489339:0]          mpool.c:42   UCX  WARN  object 0xaa1ebc0 was not returned to mpool ucp_requests
[1717650579.247068] [nc30508:489339:0]          mpool.c:42   UCX  WARN  object 0xaa1ed80 was not returned to mpool ucp_requests
[1717650579.247071] [nc30508:489339:0]          mpool.c:42   UCX  WARN  object 0xaa1ef40 was not returned to mpool ucp_requests
[1717650579.247074] [nc30508:489339:0]          mpool.c:42   UCX  WARN  object 0xaa1f100 was not returned to mpool ucp_requests
[1717650579.247077] [nc30508:489339:0]          mpool.c:42   UCX  WARN  object 0xaa1f2c0 was not returned to mpool ucp_requests
[1717650579.247081] [nc30508:489339:0]          mpool.c:42   UCX  WARN  object 0xaa1f480 was not returned to mpool ucp_requests
[1717650579.247084] [nc30508:489339:0]          mpool.c:42   UCX  WARN  object 0xaa1f640 was not returned to mpool ucp_requests
[1717650579.247087] [nc30508:489339:0]          mpool.c:42   UCX  WARN  object 0xaa1f800 was not returned to mpool ucp_requests
[1717650579.247090] [nc30508:489339:0]          mpool.c:42   UCX  WARN  object 0xaa1f9c0 was not returned to mpool ucp_requests
[1717650579.247093] [nc30508:489339:0]          mpool.c:42   UCX  WARN  object 0xaa1fb80 was not returned to mpool ucp_requests
[1717650579.247096] [nc30508:489339:0]          mpool.c:42   UCX  WARN  object 0xaa1fd40 was not returned to mpool ucp_requests
[1717650579.247099] [nc30508:489339:0]          mpool.c:42   UCX  WARN  object 0xaa1ff00 was not returned to mpool ucp_requests
[1717650579.247102] [nc30508:489339:0]          mpool.c:42   UCX  WARN  object 0xaa200c0 was not returned to mpool ucp_requests
[1717650579.247106] [nc30508:489339:0]          mpool.c:42   UCX  WARN  object 0xaa20280 was not returned to mpool ucp_requests
[1717650579.247109] [nc30508:489339:0]          mpool.c:42   UCX  WARN  object 0xaa20440 was not returned to mpool ucp_requests
[1717650579.247111] [nc30508:489339:0]          mpool.c:42   UCX  WARN  object 0xaa20600 was not returned to mpool ucp_requests
[1717650579.247114] [nc30508:489339:0]          mpool.c:42   UCX  WARN  object 0xaa207c0 was not returned to mpool ucp_requests
[1717650579.247117] [nc30508:489339:0]          mpool.c:42   UCX  WARN  object 0xaa20980 was not returned to mpool ucp_requests
[1717650579.247121] [nc30508:489339:0]          mpool.c:42   UCX  WARN  object 0xaa20b40 was not returned to mpool ucp_requests
[1717650579.247123] [nc30508:489339:0]          mpool.c:42   UCX  WARN  object 0xaa20d00 was not returned to mpool ucp_requests
[1717650579.247126] [nc30508:489339:0]          mpool.c:42   UCX  WARN  object 0xaa20ec0 was not returned to mpool ucp_requests
[1717650579.247129] [nc30508:489339:0]          mpool.c:42   UCX  WARN  object 0xaa21080 was not returned to mpool ucp_requests
[1717650579.247219] [nc30508:489335:0]          mpool.c:42   UCX  WARN  object 0xa634900 was not returned to mpool ucp_requests
[1717650579.247229] [nc30508:489335:0]          mpool.c:42   UCX  WARN  object 0xa634ac0 was not returned to mpool ucp_requests
[1717650579.247244] [nc30508:489335:0]          mpool.c:42   UCX  WARN  object 0xa634c80 was not returned to mpool ucp_requests
[1717650579.247248] [nc30508:489335:0]          mpool.c:42   UCX  WARN  object 0xa634e40 was not returned to mpool ucp_requests
[1717650579.247251] [nc30508:489335:0]          mpool.c:42   UCX  WARN  object 0xa635000 was not returned to mpool ucp_requests
[1717650579.247255] [nc30508:489335:0]          mpool.c:42   UCX  WARN  object 0xa6351c0 was not returned to mpool ucp_requests
[1717650579.247259] [nc30508:489335:0]          mpool.c:42   UCX  WARN  object 0xa635380 was not returned to mpool ucp_requests
[1717650579.247262] [nc30508:489335:0]          mpool.c:42   UCX  WARN  object 0xa635540 was not returned to mpool ucp_requests
[1717650579.247265] [nc30508:489335:0]          mpool.c:42   UCX  WARN  object 0xa635700 was not returned to mpool ucp_requests
[1717650579.247269] [nc30508:489335:0]          mpool.c:42   UCX  WARN  object 0xa6358c0 was not returned to mpool ucp_requests
[1717650579.247272] [nc30508:489335:0]          mpool.c:42   UCX  WARN  object 0xa635a80 was not returned to mpool ucp_requests
[1717650579.247276] [nc30508:489335:0]          mpool.c:42   UCX  WARN  object 0xa635c40 was not returned to mpool ucp_requests
[1717650579.247279] [nc30508:489335:0]          mpool.c:42   UCX  WARN  object 0xa635e00 was not returned to mpool ucp_requests
[1717650579.247282] [nc30508:489335:0]          mpool.c:42   UCX  WARN  object 0xa635fc0 was not returned to mpool ucp_requests
[1717650579.247285] [nc30508:489335:0]          mpool.c:42   UCX  WARN  object 0xa636180 was not returned to mpool ucp_requests
[1717650579.247288] [nc30508:489335:0]          mpool.c:42   UCX  WARN  object 0xa636340 was not returned to mpool ucp_requests
[1717650579.247273] [nc30508:489336:0]          mpool.c:42   UCX  WARN  object 0xa962cc0 was not returned to mpool ucp_requests
[1717650579.247284] [nc30508:489336:0]          mpool.c:42   UCX  WARN  object 0xa962e80 was not returned to mpool ucp_requests
[1717650579.247288] [nc30508:489336:0]          mpool.c:42   UCX  WARN  object 0xa963040 was not returned to mpool ucp_requests
[1717650579.247291] [nc30508:489336:0]          mpool.c:42   UCX  WARN  object 0xa963200 was not returned to mpool ucp_requests
[1717650579.247295] [nc30508:489336:0]          mpool.c:42   UCX  WARN  object 0xa9633c0 was not returned to mpool ucp_requests
[1717650579.247290] [nc30508:489335:0]          mpool.c:42   UCX  WARN  object 0xa636500 was not returned to mpool ucp_requests
[1717650579.247294] [nc30508:489335:0]          mpool.c:42   UCX  WARN  object 0xa6366c0 was not returned to mpool ucp_requests
[1717650579.247297] [nc30508:489335:0]          mpool.c:42   UCX  WARN  object 0xa636880 was not returned to mpool ucp_requests
[1717650579.247300] [nc30508:489335:0]          mpool.c:42   UCX  WARN  object 0xa636a40 was not returned to mpool ucp_requests
[1717650579.247297] [nc30508:489336:0]          mpool.c:42   UCX  WARN  object 0xa963580 was not returned to mpool ucp_requests
[1717650579.247301] [nc30508:489336:0]          mpool.c:42   UCX  WARN  object 0xa963740 was not returned to mpool ucp_requests
[1717650579.247303] [nc30508:489335:0]          mpool.c:42   UCX  WARN  object 0xa636c00 was not returned to mpool ucp_requests
[1717650579.247307] [nc30508:489335:0]          mpool.c:42   UCX  WARN  object 0xa636dc0 was not returned to mpool ucp_requests
[1717650579.247304] [nc30508:489336:0]          mpool.c:42   UCX  WARN  object 0xa963900 was not returned to mpool ucp_requests
[1717650579.247307] [nc30508:489336:0]          mpool.c:42   UCX  WARN  object 0xa963ac0 was not returned to mpool ucp_requests
[1717650579.247310] [nc30508:489336:0]          mpool.c:42   UCX  WARN  object 0xa963c80 was not returned to mpool ucp_requests
[1717650579.247313] [nc30508:489336:0]          mpool.c:42   UCX  WARN  object 0xa963e40 was not returned to mpool ucp_requests
[1717650579.247316] [nc30508:489336:0]          mpool.c:42   UCX  WARN  object 0xa964000 was not returned to mpool ucp_requests
[1717650579.247307] [nc30508:489341:0]          mpool.c:42   UCX  WARN  object 0xb3a5d80 was not returned to mpool ucp_requests
[1717650579.247325] [nc30508:489341:0]          mpool.c:42   UCX  WARN  object 0xb3a5f40 was not returned to mpool ucp_requests
[1717650579.247330] [nc30508:489341:0]          mpool.c:42   UCX  WARN  object 0xb3a6100 was not returned to mpool ucp_requests
[1717650579.247334] [nc30508:489341:0]          mpool.c:42   UCX  WARN  object 0xb3a62c0 was not returned to mpool ucp_requests
[1717650579.247337] [nc30508:489341:0]          mpool.c:42   UCX  WARN  object 0xb3a6480 was not returned to mpool ucp_requests
[1717650579.247341] [nc30508:489341:0]          mpool.c:42   UCX  WARN  object 0xb3a6640 was not returned to mpool ucp_requests
[1717650579.247319] [nc30508:489336:0]          mpool.c:42   UCX  WARN  object 0xa9641c0 was not returned to mpool ucp_requests
[1717650579.247325] [nc30508:489336:0]          mpool.c:42   UCX  WARN  object 0xa964380 was not returned to mpool ucp_requests
[1717650579.247328] [nc30508:489336:0]          mpool.c:42   UCX  WARN  object 0xa964540 was not returned to mpool ucp_requests
[1717650579.247330] [nc30508:489336:0]          mpool.c:42   UCX  WARN  object 0xa964700 was not returned to mpool ucp_requests
[1717650579.247334] [nc30508:489336:0]          mpool.c:42   UCX  WARN  object 0xa9648c0 was not returned to mpool ucp_requests
[1717650579.247336] [nc30508:489336:0]          mpool.c:42   UCX  WARN  object 0xa964a80 was not returned to mpool ucp_requests
[1717650579.247340] [nc30508:489336:0]          mpool.c:42   UCX  WARN  object 0xa964c40 was not returned to mpool ucp_requests
[1717650579.247343] [nc30508:489336:0]          mpool.c:42   UCX  WARN  object 0xa964e00 was not returned to mpool ucp_requests
[1717650579.247346] [nc30508:489336:0]          mpool.c:42   UCX  WARN  object 0xa964fc0 was not returned to mpool ucp_requests
[1717650579.247350] [nc30508:489336:0]          mpool.c:42   UCX  WARN  object 0xa965180 was not returned to mpool ucp_requests
[1717650579.247345] [nc30508:489341:0]          mpool.c:42   UCX  WARN  object 0xb3a6800 was not returned to mpool ucp_requests
[1717650579.247349] [nc30508:489341:0]          mpool.c:42   UCX  WARN  object 0xb3a69c0 was not returned to mpool ucp_requests
[1717650579.247352] [nc30508:489341:0]          mpool.c:42   UCX  WARN  object 0xb3a6b80 was not returned to mpool ucp_requests
[1717650579.247344] [nc30508:489338:0]          mpool.c:42   UCX  WARN  object 0xae0dec0 was not returned to mpool ucp_requests
[1717650579.247361] [nc30508:489338:0]          mpool.c:42   UCX  WARN  object 0xae0e080 was not returned to mpool ucp_requests
[1717650579.247364] [nc30508:489338:0]          mpool.c:42   UCX  WARN  object 0xae0e240 was not returned to mpool ucp_requests
[1717650579.247367] [nc30508:489338:0]          mpool.c:42   UCX  WARN  object 0xae0e400 was not returned to mpool ucp_requests
[1717650579.247369] [nc30508:489338:0]          mpool.c:42   UCX  WARN  object 0xae0e5c0 was not returned to mpool ucp_requests
[1717650579.247371] [nc30508:489338:0]          mpool.c:42   UCX  WARN  object 0xae0e780 was not returned to mpool ucp_requests
[1717650579.247374] [nc30508:489338:0]          mpool.c:42   UCX  WARN  object 0xae0e940 was not returned to mpool ucp_requests
[1717650579.247376] [nc30508:489338:0]          mpool.c:42   UCX  WARN  object 0xae0eb00 was not returned to mpool ucp_requests
[1717650579.247379] [nc30508:489338:0]          mpool.c:42   UCX  WARN  object 0xae0ecc0 was not returned to mpool ucp_requests
[1717650579.247355] [nc30508:489341:0]          mpool.c:42   UCX  WARN  object 0xb3a6d40 was not returned to mpool ucp_requests
[1717650579.247359] [nc30508:489341:0]          mpool.c:42   UCX  WARN  object 0xb3a6f00 was not returned to mpool ucp_requests
[1717650579.247361] [nc30508:489341:0]          mpool.c:42   UCX  WARN  object 0xb3a70c0 was not returned to mpool ucp_requests
[1717650579.247364] [nc30508:489341:0]          mpool.c:42   UCX  WARN  object 0xb3a7280 was not returned to mpool ucp_requests
[1717650579.247366] [nc30508:489341:0]          mpool.c:42   UCX  WARN  object 0xb3a7440 was not returned to mpool ucp_requests
[1717650579.247368] [nc30508:489341:0]          mpool.c:42   UCX  WARN  object 0xb3a7600 was not returned to mpool ucp_requests
[1717650579.247371] [nc30508:489341:0]          mpool.c:42   UCX  WARN  object 0xb3a77c0 was not returned to mpool ucp_requests
[1717650579.247373] [nc30508:489341:0]          mpool.c:42   UCX  WARN  object 0xb3a7980 was not returned to mpool ucp_requests
[1717650579.247376] [nc30508:489341:0]          mpool.c:42   UCX  WARN  object 0xb3a7b40 was not returned to mpool ucp_requests
[1717650579.247378] [nc30508:489341:0]          mpool.c:42   UCX  WARN  object 0xb3a7d00 was not returned to mpool ucp_requests
[1717650579.247383] [nc30508:489341:0]          mpool.c:42   UCX  WARN  object 0xb3a7ec0 was not returned to mpool ucp_requests
[1717650579.247384] [nc30508:489338:0]          mpool.c:42   UCX  WARN  object 0xae0ee80 was not returned to mpool ucp_requests
[1717650579.247387] [nc30508:489338:0]          mpool.c:42   UCX  WARN  object 0xae0f040 was not returned to mpool ucp_requests
[1717650579.247391] [nc30508:489338:0]          mpool.c:42   UCX  WARN  object 0xae0f200 was not returned to mpool ucp_requests
[1717650579.247395] [nc30508:489338:0]          mpool.c:42   UCX  WARN  object 0xae0f3c0 was not returned to mpool ucp_requests
[1717650579.247399] [nc30508:489338:0]          mpool.c:42   UCX  WARN  object 0xae0f580 was not returned to mpool ucp_requests
[1717650579.247386] [nc30508:489341:0]          mpool.c:42   UCX  WARN  object 0xb3a8080 was not returned to mpool ucp_requests
[1717650579.247403] [nc30508:489338:0]          mpool.c:42   UCX  WARN  object 0xae0f740 was not returned to mpool ucp_requests
[1717650579.247407] [nc30508:489338:0]          mpool.c:42   UCX  WARN  object 0xae0f900 was not returned to mpool ucp_requests
[1717650579.247411] [nc30508:489338:0]          mpool.c:42   UCX  WARN  object 0xae0fac0 was not returned to mpool ucp_requests
[1717650579.247415] [nc30508:489338:0]          mpool.c:42   UCX  WARN  object 0xae0fc80 was not returned to mpool ucp_requests
[1717650579.247419] [nc30508:489338:0]          mpool.c:42   UCX  WARN  object 0xae0fe40 was not returned to mpool ucp_requests
[1717650579.247423] [nc30508:489338:0]          mpool.c:42   UCX  WARN  object 0xae10000 was not returned to mpool ucp_requests
[1717650579.247427] [nc30508:489338:0]          mpool.c:42   UCX  WARN  object 0xae101c0 was not returned to mpool ucp_requests
[1717650579.247430] [nc30508:489338:0]          mpool.c:42   UCX  WARN  object 0xae10380 was not returned to mpool ucp_requests
[1717650579.247495] [nc30508:489337:0]          mpool.c:42   UCX  WARN  object 0xa4b7cc0 was not returned to mpool ucp_requests
[1717650579.247507] [nc30508:489337:0]          mpool.c:42   UCX  WARN  object 0xa4b7e80 was not returned to mpool ucp_requests
[1717650579.247512] [nc30508:489337:0]          mpool.c:42   UCX  WARN  object 0xa4b8040 was not returned to mpool ucp_requests
[1717650579.247517] [nc30508:489337:0]          mpool.c:42   UCX  WARN  object 0xa4b8200 was not returned to mpool ucp_requests
[1717650579.247520] [nc30508:489337:0]          mpool.c:42   UCX  WARN  object 0xa4b83c0 was not returned to mpool ucp_requests
[1717650579.247524] [nc30508:489337:0]          mpool.c:42   UCX  WARN  object 0xa4b8580 was not returned to mpool ucp_requests
[1717650579.247528] [nc30508:489337:0]          mpool.c:42   UCX  WARN  object 0xa4b8740 was not returned to mpool ucp_requests
[1717650579.247533] [nc30508:489337:0]          mpool.c:42   UCX  WARN  object 0xa4b8900 was not returned to mpool ucp_requests
[1717650579.247536] [nc30508:489337:0]          mpool.c:42   UCX  WARN  object 0xa4b8ac0 was not returned to mpool ucp_requests
[1717650579.247540] [nc30508:489337:0]          mpool.c:42   UCX  WARN  object 0xa4b8c80 was not returned to mpool ucp_requests
[1717650579.247544] [nc30508:489337:0]          mpool.c:42   UCX  WARN  object 0xa4b8e40 was not returned to mpool ucp_requests
[1717650579.247548] [nc30508:489337:0]          mpool.c:42   UCX  WARN  object 0xa4b9000 was not returned to mpool ucp_requests
[1717650579.247552] [nc30508:489337:0]          mpool.c:42   UCX  WARN  object 0xa4b91c0 was not returned to mpool ucp_requests
[1717650579.247556] [nc30508:489337:0]          mpool.c:42   UCX  WARN  object 0xa4b9380 was not returned to mpool ucp_requests
[1717650579.247560] [nc30508:489337:0]          mpool.c:42   UCX  WARN  object 0xa4b9540 was not returned to mpool ucp_requests
[1717650579.247564] [nc30508:489337:0]          mpool.c:42   UCX  WARN  object 0xa4b9700 was not returned to mpool ucp_requests
[1717650579.247568] [nc30508:489337:0]          mpool.c:42   UCX  WARN  object 0xa4b98c0 was not returned to mpool ucp_requests
[1717650579.247572] [nc30508:489337:0]          mpool.c:42   UCX  WARN  object 0xa4b9a80 was not returned to mpool ucp_requests
[1717650579.247577] [nc30508:489337:0]          mpool.c:42   UCX  WARN  object 0xa4b9c40 was not returned to mpool ucp_requests
[1717650579.247580] [nc30508:489337:0]          mpool.c:42   UCX  WARN  object 0xa4b9e00 was not returned to mpool ucp_requests
[1717650579.247584] [nc30508:489337:0]          mpool.c:42   UCX  WARN  object 0xa4b9fc0 was not returned to mpool ucp_requests
[...]
 146   30908.4    323.5     -4.83181   0.00809   0.67348   0.00010
 147   30963.9    323.0    -31.91879   0.44313  -0.02228  -0.00623
 148   30964.0    323.0    -32.08270   0.00624  -0.00050   0.44230
 149   31058.6    322.0      0.00030  -0.00003  -0.00002  -0.00143
 150   31198.2    320.5      1.27907   0.01160   0.00104  -0.00027
 151   31198.5    320.5      1.34963   0.00024   0.00006   0.01213
 152   31394.1    318.5     45.27264   0.00172  -0.00014   0.41713
 153   31394.6    318.5     45.34419  -0.41770   0.00123   0.00173
 154   31434.1    318.1     51.06270  -0.00088  -0.00024   0.23825
 155   31434.2    318.1     51.10778   0.23807   0.00821   0.00095
 156   31520.1    317.3    -77.64824   0.00028   1.18061   0.00004
 157   31564.4    316.8     -0.13630  -0.00001  -0.00004   0.00627
 158   31567.4    316.8     -5.07521   0.02692   0.02371   0.00111
 159   31567.7    316.8     -5.06414   0.00105   0.00084  -0.02733
 160   31762.0    314.8     46.26330  -0.00127   1.58934   0.00000
 161   31826.3    314.2      0.00001  -0.00002  -0.00019  -0.00127
 162   31911.9    313.4      6.02099   0.20431  -0.00274  -0.00490
 163   31912.0    313.4      6.45730  -0.00494   0.00013  -0.20391
 164   31936.3    313.1     -0.18296  -0.00279  -0.01073   0.00009
 165   31936.7    313.1     -0.01936   0.00163  -0.01879   0.00031
 166   31938.2    313.1     -0.70665   0.00004   0.00022   0.01005
 167   32007.3    312.4     -2.77153  -0.00021  -0.00009  -0.12094
 168   32008.0    312.4     -2.72188   0.12186  -0.00005  -0.00022
 169   32009.8    312.4     -0.06943   0.00003  -0.00001  -0.01744
 170   32196.9    310.6     -1.17731   0.00779  -0.00115   0.00008
 171   32197.4    310.6     -1.09643   0.00006   0.00008  -0.00724
 172   32295.7    309.6     -0.00006  -0.00000  -0.00000   0.00016
 173   32473.0    307.9     -3.94474   0.20717   0.00255   0.00043
 174   32474.3    307.9     -3.94801   0.00045   0.00000  -0.20712
 175   32668.7    306.1      0.80452   0.00054  -0.02043   0.00001
 176   32678.0    306.0      0.00007  -0.00003  -0.00000  -0.00129
 177   32727.2    305.6      6.53318   0.15606   0.00114   0.00165
 178   32727.3    305.6      6.56664  -0.00166  -0.00002   0.15560
 179   32940.8    303.6      0.47239   0.01212   0.00010   0.02687
 180   32940.8    303.6      0.48845  -0.02841  -0.00036   0.01146
 181   33011.8    302.9      0.92593   0.00920   0.43673  -0.00007
 182   33020.7    302.8      7.74107  -0.01149   0.00097  -0.20902
 183   33020.8    302.8      7.65704   0.20761  -0.01995  -0.01155
 184   33120.3    301.9     27.35669  -0.37981   0.00029   0.00747
 185   33121.0    301.9     27.28679   0.00744   0.00005   0.37962
 186   33157.3    301.6     63.48748   0.00100  -0.63965   0.00004
 187   33297.1    300.3     14.04298  -0.53679  -0.01257  -0.00422
 188   33297.1    300.3     13.98567  -0.00421  -0.00027   0.53530
 189   33314.9    300.2      0.00240  -0.00031  -0.00003   0.00271
 190   33330.4    300.0    -35.06066   0.02160  -0.57078  -0.00022
 191   33339.4    299.9     19.97393   0.26625   0.01130  -0.00064
 192   33339.7    299.9     20.23391  -0.00053  -0.00006  -0.26816
 193   33490.2    298.6     41.47708   0.00018   0.33685  -0.00006
 194   33490.6    298.6      0.02849   0.00007  -0.00882   0.00004
 195   33525.2    298.3     -0.22550   0.03107   0.00317  -0.00308
 196   33525.4    298.3     -0.22829  -0.00316  -0.00060  -0.03055
 197   33567.5    297.9     11.01905   0.00125   1.25223  -0.00002
 198   33658.0    297.1     -5.24214  -0.14695  -0.00507   0.00187
 199   33659.5    297.1     -5.28168   0.00185   0.00034   0.15110
 200   33791.3    295.9      0.20293   0.00053  -0.00003  -0.02357
 201   33793.9    295.9     16.40418   0.00060  -0.00011  -0.22387
 202   33795.3    295.9     14.63431   0.20140   0.00193   0.00077
 203   33808.7    295.8      4.10622  -0.03311   0.00004   0.50007
 204   33808.7    295.8      5.76143   0.50923  -0.00157   0.03250
 205   33895.5    295.0      0.00031  -0.00003   0.00000   0.00242
 206   33985.5    294.2      1.26227   0.45149  -0.00155   0.00308
 207   33985.6    294.2      1.03777   0.00317   0.00003  -0.44908
 208   34040.6    293.8     -0.00012  -0.00009  -0.00000   0.00287
 209   34119.1    293.1     -0.73978   0.00696  -0.06619   0.00001
 210   34167.5    292.7     14.28003   0.02271   0.00005   0.80880
 211   34167.8    292.7     14.38337  -0.80480  -0.00219   0.02279
 212   34262.5    291.9     17.95038   0.24559  -0.00003  -0.41478
 213   34262.6    291.9     18.08928  -0.41841   0.00008  -0.24348
 214   34366.1    291.0     -0.00437   0.00018   0.00002  -0.00382
 215   34383.5    290.8    -61.08018   0.44226   0.00154  -0.00701
 216   34384.1    290.8    -60.74983  -0.00706  -0.00005  -0.43730
 217   34515.2    289.7      4.50085   0.00024  -0.04594  -0.00001
 218   34624.1    288.8     -0.79316   0.00017  -0.00002  -0.00670
 219   34624.4    288.8     -1.10150   0.00933  -0.00058   0.00022
 220   34758.5    287.7     -1.20543  -0.00150  -0.00003  -0.04542
 221   34758.5    287.7     -1.21130   0.04670   0.00044  -0.00157
 222   34845.0    287.0      0.00718  -0.00022   0.00003   0.00847
 223   34903.8    286.5     -5.44735  -0.00308  -0.09114  -0.00029
 224   34942.0    286.2     19.59526   0.01529  -0.00006   0.62076
 225   34942.6    286.2     19.73135  -0.62046   0.00067   0.01526
 226   35080.5    285.1     -0.02639  -0.00036   0.00000  -0.04300
 227   35081.0    285.1     -0.02741  -0.04166  -0.00020   0.00034
 228   35145.9    284.5     -0.00062  -0.00000  -0.00001  -0.00111
 229   35187.3    284.2     -0.00009  -0.00006   0.00000  -0.00062
 230   35216.3    284.0     -4.41701   0.00027  -0.00001  -0.13543
 231   35216.7    284.0     -4.38656  -0.13579  -0.00089  -0.00033
 232   35409.0    282.4    -11.78765   0.00164  -0.26887   0.00001
 233   35474.3    281.9     -9.36369  -0.00312   0.00004  -0.18562
 234   35474.5    281.9     -9.58006   0.18888  -0.00212  -0.00303
 235   35573.2    281.1    -12.18074  -0.00292   0.25355  -0.00010
 236   35592.4    281.0     -0.00020   0.00005  -0.00003   0.00042
 237   35597.0    280.9      1.10154  -0.00282   0.04555   0.00008
 238   35657.4    280.4    -12.67282  -0.00209   0.31039   0.00003
 239   35690.7    280.2    -20.15630   0.00115   0.00001  -0.24518
 240   35690.8    280.2    -20.86271  -0.25423   0.00321  -0.00111
 241   35757.9    279.7     87.02773   0.01268   0.00006   1.33553
 242   35758.4    279.7     91.00264  -1.32556  -0.00315   0.01264
 243   35780.0    279.5    -12.15019   0.21697  -0.00230  -0.00390
 244   35781.6    279.5     -9.49809  -0.00410   0.00004  -0.16012
 245   35869.1    278.8      0.00052  -0.00006  -0.00000   0.00480
 246   35932.0    278.3     -0.00035   0.00008  -0.00042   0.00272
 247   35940.7    278.2     35.76534  -0.00486   0.49023  -0.00007
 248   36020.4    277.6     -0.04837  -0.00379   0.00462  -0.00023
 249   36020.8    277.6     -0.10435   0.00005  -0.00010  -0.00725
 250   36148.5    276.6      0.00001   0.00001   0.00001  -0.00004
 251   36184.6    276.4      1.42191   0.01068   0.01549   0.00004
 252   36230.0    276.0      6.74029  -0.00055  -0.00001   0.42429
 253   36230.5    276.0      6.70467  -0.41870  -0.00154  -0.00060
 254   36265.4    275.7      7.05818   0.35168   0.00231   0.01403
 255   36265.8    275.7      7.07295  -0.01434  -0.00009   0.35186
 256   36319.4    275.3     32.88523  -0.00959   0.17214   0.00014
 257   36372.4    274.9      0.00002   0.00003   0.00001  -0.00198
 258   36470.9    274.2     -8.07802   0.29296  -0.00000   0.02639
 259   36471.2    274.2     -8.08452  -0.02656  -0.00000   0.28958
 260   36481.9    274.1     -0.00020  -0.00009   0.00001  -0.00169
 261   36515.6    273.9     -0.00003  -0.00003   0.00000   0.00093
 262   36540.0    273.7      0.75835  -0.00161   0.00003   0.11226
 263   36540.5    273.7      0.81884  -0.11623   0.00097  -0.00146
 264   36603.6    273.2      2.47138  -0.00294   0.04124   0.00010
 265   36628.9    273.0      5.55182  -0.03015   0.00140   0.39193
 266   36629.1    273.0      5.41477   0.38926  -0.01284   0.03080
 267   36631.5    273.0     -3.41921  -0.05198  -0.09508   0.00160
 268   36637.7    272.9     -0.08678  -0.02731  -0.00514   0.00043
 269   36637.9    272.9     -0.06712  -0.00027  -0.00019   0.02397
 270   36648.2    272.9      0.00016   0.00047   0.00002  -0.00242
 271   36724.1    272.3     -0.59433   0.00761  -0.05251  -0.00014
 272   36757.8    272.1     11.11465   0.73808   0.00429   0.01900
 273   36758.0    272.0     11.08119  -0.01894  -0.00022   0.73652
 274   36764.5    272.0      0.36560  -0.02888   0.10483   0.00070
 275   36852.5    271.4     -4.81306  -0.29266  -0.00130   0.00231
 276   36852.6    271.4     -4.94855   0.00210   0.00001   0.29912
 277   36864.0    271.3     -0.01496  -0.00037   0.00001   0.02125
 278   36905.8    271.0     -8.92194   0.00257  -0.11330   0.00006
 279   36956.7    270.6    -56.95430   0.00125  -0.00001   0.44151
 280   36957.7    270.6    -57.57831  -0.44710  -0.00197   0.00132
 281   37028.9    270.1     19.13193   0.34601   0.00136   0.02305
 282   37029.1    270.1     19.03874  -0.02270  -0.00011   0.34907
 283   37080.4    269.7      0.00039   0.00002   0.00002   0.00105
 284   37224.8    268.6    -11.50498  -0.22547  -0.00495   0.00163
 285   37226.1    268.6    -11.54016   0.00157  -0.00005   0.22425
 286   37269.5    268.3     -5.21743   0.00617  -0.25269  -0.00010
 287   37293.0    268.1     -0.00064  -0.00012  -0.00006   0.00171
 288   37362.0    267.7     15.00720  -0.56039  -0.00218   0.01201
 289   37362.4    267.6     14.88765   0.01197   0.00003   0.56481
 290   37396.8    267.4     -0.00047  -0.00009  -0.00000  -0.00269
 291   37428.4    267.2     -0.00011   0.00000   0.00003   0.00115
 292   37545.3    266.3     -0.21269  -0.00053  -0.00544  -0.00006
 293   37551.7    266.3      0.41913  -0.00123  -0.00015   0.04216
 294   37551.9    266.3      0.36695   0.03800   0.00231   0.00145
 295   37568.0    266.2     -0.00006   0.00000  -0.00010   0.00238
 296   37594.5    266.0     -0.00066   0.00002   0.00003  -0.00276
 297   37666.3    265.5      0.72447  -0.23684  -0.00088   0.00087
 298   37667.6    265.5      0.65587   0.00077  -0.00016   0.23548
 299   37691.9    265.3     -3.71456   0.00877   0.00075  -0.32025
 300   37692.0    265.3     -3.66600  -0.32135  -0.00435  -0.00877
 301   37717.5    265.1    -50.16307   0.00135  -0.97013  -0.00020
 302   37756.9    264.9     -4.19419   0.00021  -0.47562  -0.00009
 303   37776.5    264.7     23.44967  -0.00054  -0.33554  -0.00006
 304   37799.3    264.6     -0.25643  -0.09765  -0.00210   0.00066
 305   37799.8    264.6     -0.22866   0.00070  -0.00023   0.09469
 306   37876.4    264.0     -0.00030   0.00002  -0.00003   0.00134
 307   37901.7    263.8     61.48881  -0.00004  -0.78520   0.00001
 308   38046.0    262.8      8.69306  -0.54345   0.00291   0.00355
 309   38046.4    262.8      8.53193  -0.00378   0.00002  -0.53744
 310   38069.3    262.7     -5.31794  -0.00978  -0.00003   0.48367
 311   38069.6    262.7     -5.14305   0.47974   0.00043   0.00962
 312   38182.2    261.9     -0.00055  -0.00009  -0.00002   0.00183
 313   38207.5    261.7     -1.72716  -0.06464   0.00321  -0.00003
 314   38207.7    261.7     -2.12672   0.00218   0.16382   0.00055
 315   38208.0    261.7     -1.71441  -0.00001  -0.00132   0.06401
 316   38340.4    260.8     15.49776  -0.03145   0.00011   0.36376
 317   38340.6    260.8     15.54181   0.36329  -0.00213   0.03159
 318   38362.2    260.7     54.86667  -0.01198  -0.64765   0.00011
 319   38374.2    260.6      5.02122  -0.00845   0.00096   0.30463
 320   38374.3    260.6      5.03729   0.31085  -0.02315   0.00828
 321   38376.0    260.6      0.27177  -0.00039  -0.00010   0.06578
 322   38408.3    260.4     -0.38201   0.00906  -0.00547  -0.00004
 323   38408.9    260.4     -0.51962  -0.00004   0.00001  -0.01222
 324   38638.0    258.8      0.00011  -0.00001  -0.00001   0.00031
 325   38685.1    258.5     -0.55752   0.03380  -0.00331  -0.00073
 326   38685.7    258.5     -0.59479  -0.00071  -0.00005  -0.03520
 327   38722.0    258.3     -3.84373  -0.00014  -1.09129   0.00001
 328   38761.8    258.0    -15.05033  -0.02920   0.00077  -0.15602
 329   38761.8    258.0    -14.99874   0.15535  -0.00379  -0.02929
 330   38836.8    257.5      0.00120  -0.00014  -0.00004   0.00349
 331   38849.7    257.4     10.95603  -0.29781   0.00408  -0.00281
 332   38850.2    257.4     10.99779   0.00283  -0.00005  -0.30021
 333   38938.3    256.8     19.62578   0.01568  -0.50980   0.00029
 334   38941.3    256.8     -0.25036  -0.06977  -0.13426   0.00131
 335   38941.9    256.8     -1.73610   0.00136   0.00479   0.07235
 336   38993.1    256.5      0.00054   0.00007  -0.00007   0.00731
 337   39019.6    256.3     -1.14972  -0.35012  -0.00323  -0.00292
 338   39020.0    256.3     -1.00557   0.00287   0.00002  -0.35158
 339   39151.2    255.4      0.27289   0.00014   0.00001   0.05545
 340   39152.1    255.4      0.29486   0.05663   0.00573  -0.00011
 341   39164.5    255.3    -33.68056  -0.00115   0.69713   0.00000
 342   39203.7    255.1      1.78420   0.08829  -0.00094   0.00228
 343   39203.8    255.1      1.78745   0.00226   0.00002  -0.08863
 344   39281.6    254.6     -0.23343   0.24345  -0.00214   0.00118
 345   39281.8    254.6     -0.17148   0.00114   0.00005  -0.24654
 346   39308.2    254.4     -0.00012  -0.00008   0.00003  -0.00252
 347   39366.9    254.0     31.69063  -0.73883  -0.01174   0.01042
 348   39367.0    254.0     31.93717   0.01025   0.00028   0.74506
 349   39399.4    253.8    -106.21768   0.00850   0.38516  -0.00003
 350   39463.5    253.4    -33.22941   0.00345  -0.00073   1.29691
 351   39464.6    253.4    -33.18718  -1.29917   0.03487   0.00347
 352   39470.9    253.4    246.94610  -0.02175  -1.48661  -0.00049
 353   39509.2    253.1     -0.00177  -0.00034   0.00005   0.00772
 354   39663.1    252.1     -0.97578   0.00113   0.00003   0.31803
 355   39663.5    252.1     -0.85760  -0.31411  -0.00037   0.00106
 356   39681.9    252.0      0.00560  -0.00001  -0.00000   0.01013
 357   39717.0    251.8      7.06859  -0.00608  -0.00000   0.29906
 358   39717.2    251.8      6.90411  -0.29014  -0.00099  -0.00635
 359   39791.0    251.3     -4.34108   0.02310  -0.00001   0.68313
 360   39791.1    251.3     -4.07342  -0.69892   0.00110   0.02234
 361   39822.5    251.1     -0.00044   0.00018  -0.00002   0.03227
 362   39831.1    251.1     -0.24760  -0.00157   0.00004   0.52710
 363   39832.0    251.1      0.00674  -0.51949  -0.00212  -0.00130
 364   39931.3    250.4      0.07136   0.00202   0.00008   0.10641
 365   39931.5    250.4      0.06601  -0.10487  -0.00028   0.00213
 366   39944.5    250.3     12.62829  -0.00081   0.21376   0.00006
 367   40002.7    250.0      0.00078   0.00001  -0.00001  -0.00548
 368   40022.0    249.9     -0.16892  -0.30644   0.00032  -0.02521
 369   40022.2    249.9     -0.07151   0.02515   0.00000  -0.30767
 370   40170.6    248.9     22.11830   0.01998   0.00007   0.47234
 371   40170.7    248.9     21.98007  -0.47040  -0.00115   0.02010
 372   40230.3    248.6      2.79331  -0.00872   0.04836  -0.00085
 373   40235.0    248.5     -4.00924   0.00230  -0.00011  -0.21451
 374   40235.5    248.5     -3.88523  -0.21493  -0.00402  -0.00219
 375   40277.9    248.3      0.00074   0.00000  -0.00001  -0.00254
 376   40313.4    248.1     -0.02448   0.00086   0.00137  -0.00005
 377   40313.9    248.1      0.14560  -0.00005   0.00004   0.00531
 378   40332.1    247.9     -1.04344   0.00211  -0.00001  -0.29855
 379   40332.2    247.9     -0.71875   0.30182  -0.00296   0.00218
 380   40373.9    247.7    -38.51332   0.00042   0.28412  -0.00008
 381   40380.6    247.6      1.34801   0.00151  -0.00021  -0.16309
 382   40381.4    247.6      1.33732   0.16430   0.00057   0.00147
 383   40427.5    247.4     -0.02099   0.00015   0.00087   0.05382
 384   40427.9    247.4     -0.01320  -0.05531   0.00139   0.00011
 385   40430.5    247.3     22.58331  -0.00045  -0.23672   0.00027
 386   40432.8    247.3      0.00014  -0.00003  -0.00062  -0.00036
 387   40472.2    247.1     -0.00052   0.00005   0.00003  -0.00208
 388   40544.0    246.6     -7.86441  -0.00044  -0.00003  -0.19163
 389   40544.6    246.6     -7.96176   0.19282   0.00129  -0.00043
 390   40570.6    246.5     -0.00091  -0.00000   0.00001   0.00192
 391   40611.4    246.2     -0.43461   0.02705   0.00188   0.00029
 392   40612.0    246.2     -0.44236  -0.00024   0.00004   0.02734
 393   40660.5    245.9    -183.22704  -0.00004  -0.32047   0.00001
 394   40721.6    245.6     -0.00006  -0.00001  -0.00002  -0.00058
 395   40787.9    245.2     -1.30408   0.06747   0.00354   0.00100
 396   40788.1    245.2     -1.32131  -0.00100   0.00012   0.06922
 397   40797.3    245.1    -144.02607   0.00025  -0.39616   0.00002
 398   40845.5    244.8      0.03665   0.00006   0.00009   0.00344
 399   40845.7    244.8      0.01254  -0.00196  -0.00356   0.00009
 400   41047.4    243.6      4.40244   0.00462   0.00007  -0.28944

Total run time:    12257.693 sec

           *** ORCA-CIS/TD-DFT FINISHED WITHOUT ERROR ***

Maximum memory used throughout the entire CIS-calculation: 2772.2 MB

-----------------------
CIS/TD-DFT TOTAL ENERGY
-----------------------

    E(SCF)  =  -4341.061421839 Eh
    DE(CIS) =      0.027193794 Eh (Root  1)
    ----------------------------- ---------
    E(tot)  =  -4341.034228045 Eh


-------------------------   --------------------
FINAL SINGLE POINT ENERGY     -4341.034228044542
-------------------------   --------------------


                            ***************************************
                            *     ORCA property calculations      *
                            ***************************************

                                    ---------------------
                                    Active property flags
                                    ---------------------
   (+) Dipole Moment


------------------------------------------------------------------------------
                       ORCA ELECTRIC PROPERTIES CALCULATION
------------------------------------------------------------------------------

Dipole Moment Calculation                       ... on
Quadrupole Moment Calculation                   ... off
Polarizability Calculation                      ... off
GBWName                                         ... ABS_c114-D3_a.gbw
Electron density                                ... ABS_c114-D3_a.scfp
The origin for moment calculation is the CENTER OF MASS  = ( 0.000000,  0.000000 -0.000000)

-------------
DIPOLE MOMENT
-------------
                                X             Y             Z
Electronic contribution:     -0.00001       0.00001       0.00204
Nuclear contribution   :      0.00000       0.00000       0.00000
                        -----------------------------------------
Total Dipole Moment    :     -0.00001       0.00001       0.00204
                        -----------------------------------------
Magnitude (a.u.)       :      0.00204
Magnitude (Debye)      :      0.00520



--------------------
Rotational spectrum 
--------------------
 
Rotational constants in cm-1:     0.001167     0.000601     0.000601 
Rotational constants in MHz :    34.973220    18.026555    18.025488 

 Dipole components along the rotational axes: 
x,y,z [a.u.] :     0.000009    -0.000007     0.002045 
x,y,z [Debye]:     0.000022    -0.000018     0.005197 

 

Timings for individual modules:

Sum of individual times         ...    12682.917 sec (= 211.382 min)
GTO integral calculation        ...       17.155 sec (=   0.286 min)   0.1 %
SCF iterations                  ...      386.349 sec (=   6.439 min)   3.0 %
CIS module                      ...    12279.413 sec (= 204.657 min)  96.8 %
                             ****ORCA TERMINATED NORMALLY****
TOTAL RUN TIME: 0 days 3 hours 31 minutes 54 seconds 863 msec
