
                                 *****************
                                 * O   R   C   A *
                                 *****************

                                            #,                                       
                                            ###                                      
                                            ####                                     
                                            #####                                    
                                            ######                                   
                                           ########,                                 
                                     ,,################,,,,,                         
                               ,,#################################,,                 
                          ,,##########################################,,             
                       ,#########################################, ''#####,          
                    ,#############################################,,   '####,        
                  ,##################################################,,,,####,       
                ,###########''''           ''''###############################       
              ,#####''   ,,,,##########,,,,          '''####'''          '####       
            ,##' ,,,,###########################,,,                        '##       
           ' ,,###''''                  '''############,,,                           
         ,,##''                                '''############,,,,        ,,,,,,###''
      ,#''                                            '''#######################'''  
     '                                                          ''''####''''         
             ,#######,   #######,   ,#######,      ##                                
            ,#'     '#,  ##    ##  ,#'     '#,    #''#        ######   ,####,        
            ##       ##  ##   ,#'  ##            #'  '#       #        #'  '#        
            ##       ##  #######   ##           ,######,      #####,   #    #        
            '#,     ,#'  ##    ##  '#,     ,#' ,#      #,         ##   #,  ,#        
             '#######'   ##     ##  '#######'  #'      '#     #####' # '####'        



                  #######################################################
                  #                        -***-                        #
                  #          Department of theory and spectroscopy      #
                  #    Directorship and core code : Frank Neese         #
                  #        Max Planck Institute fuer Kohlenforschung    #
                  #                Kaiser Wilhelm Platz 1               #
                  #                 D-45470 Muelheim/Ruhr               #
                  #                      Germany                        #
                  #                                                     #
                  #                  All rights reserved                #
                  #                        -***-                        #
                  #######################################################


                         Program Version 5.0.4 -  RELEASE  -


 With contributions from (in alphabetic order):
   Daniel Aravena         : Magnetic Suceptibility
   Michael Atanasov       : Ab Initio Ligand Field Theory (pilot matlab implementation)
   Alexander A. Auer      : GIAO ZORA, VPT2 properties, NMR spectrum
   Ute Becker             : Parallelization
   Giovanni Bistoni       : ED, misc. LED, open-shell LED, HFLD
   Martin Brehm           : Molecular dynamics
   Dmytro Bykov           : SCF Hessian
   Vijay G. Chilkuri      : MRCI spin determinant printing, contributions to CSF-ICE
   Dipayan Datta          : RHF DLPNO-CCSD density
   Achintya Kumar Dutta   : EOM-CC, STEOM-CC
   Dmitry Ganyushin       : Spin-Orbit,Spin-Spin,Magnetic field MRCI
   Miquel Garcia          : C-PCM and meta-GGA Hessian, CC/C-PCM, Gaussian charge scheme
   Yang Guo               : DLPNO-NEVPT2, F12-NEVPT2, CIM, IAO-localization
   Andreas Hansen         : Spin unrestricted coupled pair/coupled cluster methods
   Benjamin Helmich-Paris : MC-RPA, TRAH-SCF, COSX integrals
   Lee Huntington         : MR-EOM, pCC
   Robert Izsak           : Overlap fitted RIJCOSX, COSX-SCS-MP3, EOM
   Marcus Kettner         : VPT2
   Christian Kollmar      : KDIIS, OOCD, Brueckner-CCSD(T), CCSD density, CASPT2, CASPT2-K
   Simone Kossmann        : Meta GGA functionals, TD-DFT gradient, OOMP2, MP2 Hessian
   Martin Krupicka        : Initial AUTO-CI
   Lucas Lang             : DCDCAS
   Marvin Lechner         : AUTO-CI (C++ implementation), FIC-MRCC
   Dagmar Lenk            : GEPOL surface, SMD
   Dimitrios Liakos       : Extrapolation schemes; Compound Job, initial MDCI parallelization
   Dimitrios Manganas     : Further ROCIS development; embedding schemes
   Dimitrios Pantazis     : SARC Basis sets
   Anastasios Papadopoulos: AUTO-CI, single reference methods and gradients
   Taras Petrenko         : DFT Hessian,TD-DFT gradient, ASA, ECA, R-Raman, ABS, FL, XAS/XES, NRVS
   Peter Pinski           : DLPNO-MP2, DLPNO-MP2 Gradient
   Christoph Reimann      : Effective Core Potentials
   Marius Retegan         : Local ZFS, SOC
   Christoph Riplinger    : Optimizer, TS searches, QM/MM, DLPNO-CCSD(T), (RO)-DLPNO pert. Triples
   Tobias Risthaus        : Range-separated hybrids, TD-DFT gradient, RPA, STAB
   Michael Roemelt        : Original ROCIS implementation
   Masaaki Saitow         : Open-shell DLPNO-CCSD energy and density
   Barbara Sandhoefer     : DKH picture change effects
   Avijit Sen             : IP-ROCIS
   Kantharuban Sivalingam : CASSCF convergence, NEVPT2, FIC-MRCI
   Bernardo de Souza      : ESD, SOC TD-DFT
   Georgi Stoychev        : AutoAux, RI-MP2 NMR, DLPNO-MP2 response
   Willem Van den Heuvel  : Paramagnetic NMR
   Boris Wezisla          : Elementary symmetry handling
   Frank Wennmohs         : Technical directorship


 We gratefully acknowledge several colleagues who have allowed us to
 interface, adapt or use parts of their codes:
   Stefan Grimme, W. Hujo, H. Kruse, P. Pracht,  : VdW corrections, initial TS optimization,
                  C. Bannwarth, S. Ehlert          DFT functionals, gCP, sTDA/sTD-DF
   Ed Valeev, F. Pavosevic, A. Kumar             : LibInt (2-el integral package), F12 methods
   Garnet Chan, S. Sharma, J. Yang, R. Olivares  : DMRG
   Ulf Ekstrom                                   : XCFun DFT Library
   Mihaly Kallay                                 : mrcc  (arbitrary order and MRCC methods)
   Jiri Pittner, Ondrej Demel                    : Mk-CCSD
   Frank Weinhold                                : gennbo (NPA and NBO analysis)
   Christopher J. Cramer and Donald G. Truhlar   : smd solvation model
   Lars Goerigk                                  : TD-DFT with DH, B97 family of functionals
   V. Asgeirsson, H. Jonsson                     : NEB implementation
   FAccTs GmbH                                   : IRC, NEB, NEB-TS, DLPNO-Multilevel, CI-OPT
                                                   MM, QMMM, 2- and 3-layer-ONIOM, Crystal-QMMM,
                                                   LR-CPCM, SF, NACMEs, symmetry and pop. for TD-DFT,
                                                   nearIR, NL-DFT gradient (VV10), updates on ESD,
                                                   ML-optimized integration grids
   S Lehtola, MJT Oliveira, MAL Marques          : LibXC Library
   Liviu Ungur et al                             : ANISO software


 Your calculation uses the libint2 library for the computation of 2-el integrals
 For citations please refer to: http://libint.valeyev.net

 Your ORCA version has been built with support for libXC version: 5.1.0
 For citations please refer to: https://tddft.org/programs/libxc/

 This ORCA versions uses:
   CBLAS   interface :  Fast vector & matrix operations
   LAPACKE interface :  Fast linear algebra routines
   SCALAPACK package :  Parallel linear algebra routines
   Shared memory     :  Shared parallel matrices
   BLAS/LAPACK       :  OpenBLAS 0.3.15  USE64BITINT DYNAMIC_ARCH NO_AFFINITY Zen SINGLE_THREADED
        Core in use  :  Zen
   Copyright (c) 2011-2014, The OpenBLAS Project




***************************************
The coordinates will be read from file: OPT_c114-D3h_a.xyz
***************************************


================================================================================

----- Orbital basis set information -----
Your calculation utilizes the basis: def2-SVP
   F. Weigend and R. Ahlrichs, Phys. Chem. Chem. Phys. 7, 3297 (2005).

----- AuxJ basis set information -----
Your calculation utilizes the auxiliary basis: def2/J
   F. Weigend, Phys. Chem. Chem. Phys. 8, 1057 (2006).

================================================================================
                                        WARNINGS
                       Please study these warnings very carefully!
================================================================================

INFO   : Checking CIS options ...

WARNING: CIS/ROCIS methods need fully converged wavefunctions
  ===> : Setting SCFConvForced true
         You can overwrite this default with %scf ConvForced false 


INFO   : the flag for use of the SHARK integral package has been found!

================================================================================
                                       INPUT FILE
================================================================================
NAME = ABS_c114-D3h_a.inp
|  1> ! B3LYP/G def2-SVP DefGrid3 TightSCF 
|  2> # DFT functional:   B3LYP/G
|  3> # Basis:            def2-SVP
|  4> %maxcore 3000
|  5> %pal nprocs 64
|  6> end
|  7> %base "ABS_c114-D3h_a"
|  8> %scf
|  9>       Guess         MORead
| 10>       MOInp         "OPT_c114-D3h_a.gbw"
| 11>       MaxIter       1000
| 12>       AutoTRAHIter  20
| 13> end
| 14> %cpcm
| 15>       epsilon 2.568
| 16>       refrac  1.5058
| 17> end
| 18> %tddft
| 19>       TDA     True
| 20>       maxdim  10    # Davidson expansion space = MaxDim * nroots
| 21>                     # Use MaxDim 5-10 for favorable convergence
| 22>       nroots  400 # Setting the number of roots (transitions)
| 23>                       # to be calculated
| 24> end
| 25> *xyzfile 0 1 OPT_c114-D3h_a.xyz
| 26> 
| 27>                          ****END OF INPUT****
================================================================================

                       ****************************
                       * Single Point Calculation *
                       ****************************

---------------------------------
CARTESIAN COORDINATES (ANGSTROEM)
---------------------------------
  C     -0.701368    6.472058    1.239915
  C      0.701370    6.472059    1.239916
  C     -1.424462    6.472019   -0.012502
  C     -0.723088    6.471989   -1.227278
  C      1.424463    6.472021   -0.012502
  C     -1.424377    5.606862    2.161145
  C      0.723088    6.471988   -1.227278
  C     -0.727666    4.850265    3.090989
  C      1.424377    5.606864    2.161146
  C     -2.583685    5.606761    0.153059
  C      0.727662    4.850262    3.090982
  C     -3.040594    4.850167   -0.915289
  C     -1.159294    5.606788   -2.314064
  C      2.583685    5.606762    0.153059
  C     -2.547941    5.013001    1.471159
  C     -2.312948    4.850246   -2.175733
  C      3.040594    4.850167   -0.915289
  C     -2.921431    3.652814    1.686895
  C      1.159293    5.606788   -2.314064
  C     -1.169839    3.523510    3.408203
  C      2.547941    5.013002    1.471159
  C      2.312948    4.850245   -2.175733
  C     -1.169834   -3.523508    3.408198
  C      2.921430    3.652814    1.686895
  C      1.169841    3.523511    3.408206
  C     -3.535927    3.523297   -0.690847
  C     -0.000000    5.013017   -2.942177
  C     -3.535929   -3.523296   -0.690844
  C      1.169833   -3.523507    3.408190
  C     -0.000000    3.652958   -3.373901
  C     -2.366418    3.523476   -2.717357
  C      3.535926    3.523297   -0.690846
  C     -2.921420   -3.652812    1.686888
  C      3.535929   -3.523296   -0.690845
  C     -2.366428   -3.523479   -2.717366
  C     -2.547941   -5.013004    1.471161
  C      2.366417    3.523475   -2.717356
  C     -0.727667   -4.850269    3.090996
  C      2.921422   -3.652813    1.686888
  C      2.366426   -3.523479   -2.717364
  C     -1.424373   -5.606862    2.161145
  C      2.547941   -5.013005    1.471160
  C     -3.040580   -4.850158   -0.915284
  C      0.727663   -4.850266    3.090987
  C     -0.000000   -3.652955   -3.373895
  C     -2.583692   -5.606769    0.153062
  C      1.424373   -5.606864    2.161144
  C      0.000000   -5.013013   -2.942179
  C      3.040580   -4.850159   -0.915285
  C     -2.312958   -4.850252   -2.175742
  C      2.583693   -5.606770    0.153061
  C     -1.159289   -5.606776   -2.314056
  C      2.312957   -4.850252   -2.175741
  C     -0.701368   -6.472062    1.239916
  C      1.159289   -5.606777   -2.314056
  C      0.701369   -6.472063    1.239916
  C     -1.424461   -6.472018   -0.012500
  C     -0.723088   -6.471988   -1.227277
  C      1.424462   -6.472019   -0.012501
  C      0.723089   -6.471992   -1.227279
  C      0.000001    2.754480    3.737206
  C     -3.235791    2.754310   -1.868416
  C      3.235789    2.754309   -1.868415
  C      2.240829    2.896706    2.727583
  C      3.481843    2.896579    0.577009
  C     -2.240829    2.896706    2.727583
  C     -1.241550    2.896800   -3.304959
  C      1.241549    2.896799   -3.304958
  C     -3.481844    2.896579    0.577008
  C     -3.481858   -2.896582    0.577013
  C     -2.240819   -2.896703    2.727574
  C     -1.241554   -2.896800   -3.304957
  C      3.481860   -2.896582    0.577014
  C      2.240819   -2.896703    2.727572
  C      1.241553   -2.896800   -3.304957
  C     -3.235793   -2.754310   -1.868415
  C      3.235794   -2.754310   -1.868415
  C      0.000001   -2.754479    3.737208
  C      0.000002    1.376640    3.679681
  C     -3.185620    1.376533   -1.839592
  C      3.185617    1.376532   -1.839590
  C      2.293352    1.447095    2.745615
  C      3.523347    1.447033    0.613566
  C     -2.293348    1.447095    2.745609
  C     -1.230764    1.447155   -3.359568
  C      1.230763    1.447154   -3.359568
  C     -3.523348    1.447033    0.613563
  C     -3.523314   -1.447036    0.613558
  C     -2.293365   -1.447092    2.745632
  C     -1.230766   -1.447156   -3.359561
  C      3.523316   -1.447036    0.613562
  C      2.293371   -1.447092    2.745638
  C      1.230766   -1.447156   -3.359566
  C     -3.185647   -1.376530   -1.839606
  C      3.185630   -1.376532   -1.839596
  C      0.000001   -1.376640    3.679669
  C     -3.089319    0.718570    1.784014
  C      3.089322    0.718570    1.784018
  C     -0.000001    0.718627   -3.568377
  C     -3.555521    0.709123   -0.610698
  C     -2.307018    0.709182   -2.775150
  C     -1.249374    0.709192    3.386081
  C      3.555519    0.709122   -0.610696
  C      2.307016    0.709182   -2.775150
  C      1.249380    0.709192    3.386091
  C      1.249381   -0.709190    3.386088
  C     -1.249374   -0.709189    3.386076
  C      3.555518   -0.709123   -0.610696
  C     -2.307022   -0.709182   -2.775149
  C     -3.555520   -0.709123   -0.610700
  C      2.307022   -0.709182   -2.775152
  C      3.089320   -0.718570    1.784021
  C     -0.000000   -0.718630   -3.568371
  C     -3.089316   -0.718570    1.784016

----------------------------
CARTESIAN COORDINATES (A.U.)
----------------------------
  NO LB      ZA    FRAG     MASS         X           Y           Z
   0 C     6.0000    0    12.011   -1.325394   12.230417    2.343100
   1 C     6.0000    0    12.011    1.325396   12.230420    2.343101
   2 C     6.0000    0    12.011   -2.691843   12.230344   -0.023625
   3 C     6.0000    0    12.011   -1.366439   12.230286   -2.319219
   4 C     6.0000    0    12.011    2.691845   12.230347   -0.023625
   5 C     6.0000    0    12.011   -2.691682   10.595433    4.083973
   6 C     6.0000    0    12.011    1.366438   12.230285   -2.319219
   7 C     6.0000    0    12.011   -1.375090    9.165673    5.841123
   8 C     6.0000    0    12.011    2.691683   10.595437    4.083974
   9 C     6.0000    0    12.011   -4.882457   10.595243    0.289240
  10 C     6.0000    0    12.011    1.375082    9.165667    5.841110
  11 C     6.0000    0    12.011   -5.745890    9.165488   -1.729646
  12 C     6.0000    0    12.011   -2.190747   10.595294   -4.372948
  13 C     6.0000    0    12.011    4.882457   10.595244    0.289241
  14 C     6.0000    0    12.011   -4.814911    9.473200    2.780088
  15 C     6.0000    0    12.011   -4.370839    9.165636   -4.111540
  16 C     6.0000    0    12.011    5.745889    9.165487   -1.729645
  17 C     6.0000    0    12.011   -5.520705    6.902818    3.187769
  18 C     6.0000    0    12.011    2.190747   10.595293   -4.372947
  19 C     6.0000    0    12.011   -2.210675    6.658469    6.440570
  20 C     6.0000    0    12.011    4.814911    9.473201    2.780088
  21 C     6.0000    0    12.011    4.370839    9.165635   -4.111539
  22 C     6.0000    0    12.011   -2.210667   -6.658465    6.440560
  23 C     6.0000    0    12.011    5.520703    6.902819    3.187769
  24 C     6.0000    0    12.011    2.210679    6.658471    6.440576
  25 C     6.0000    0    12.011   -6.681934    6.658067   -1.305512
  26 C     6.0000    0    12.011   -0.000000    9.473229   -5.559908
  27 C     6.0000    0    12.011   -6.681937   -6.658065   -1.305506
  28 C     6.0000    0    12.011    2.210663   -6.658464    6.440545
  29 C     6.0000    0    12.011   -0.000001    6.903090   -6.375749
  30 C     6.0000    0    12.011   -4.471881    6.658404   -5.135061
  31 C     6.0000    0    12.011    6.681932    6.658066   -1.305510
  32 C     6.0000    0    12.011   -5.520685   -6.902815    3.187757
  33 C     6.0000    0    12.011    6.681938   -6.658065   -1.305507
  34 C     6.0000    0    12.011   -4.471901   -6.658410   -5.135078
  35 C     6.0000    0    12.011   -4.814910   -9.473205    2.780090
  36 C     6.0000    0    12.011    4.471880    6.658402   -5.135059
  37 C     6.0000    0    12.011   -1.375091   -9.165680    5.841136
  38 C     6.0000    0    12.011    5.520687   -6.902816    3.187756
  39 C     6.0000    0    12.011    4.471898   -6.658410   -5.135074
  40 C     6.0000    0    12.011   -2.691675  -10.595434    4.083971
  41 C     6.0000    0    12.011    4.814911   -9.473207    2.780089
  42 C     6.0000    0    12.011   -5.745863   -9.165471   -1.729637
  43 C     6.0000    0    12.011    1.375084   -9.165674    5.841119
  44 C     6.0000    0    12.011   -0.000001   -6.903084   -6.375738
  45 C     6.0000    0    12.011   -4.882471  -10.595257    0.289245
  46 C     6.0000    0    12.011    2.691676  -10.595438    4.083971
  47 C     6.0000    0    12.011    0.000000   -9.473221   -5.559912
  48 C     6.0000    0    12.011    5.745864   -9.165471   -1.729637
  49 C     6.0000    0    12.011   -4.370857   -9.165648   -4.111556
  50 C     6.0000    0    12.011    4.882472  -10.595259    0.289244
  51 C     6.0000    0    12.011   -2.190738  -10.595272   -4.372931
  52 C     6.0000    0    12.011    4.370856   -9.165648   -4.111555
  53 C     6.0000    0    12.011   -1.325394  -12.230424    2.343102
  54 C     6.0000    0    12.011    2.190739  -10.595273   -4.372932
  55 C     6.0000    0    12.011    1.325395  -12.230426    2.343101
  56 C     6.0000    0    12.011   -2.691842  -12.230342   -0.023622
  57 C     6.0000    0    12.011   -1.366439  -12.230285   -2.319218
  58 C     6.0000    0    12.011    2.691843  -12.230344   -0.023624
  59 C     6.0000    0    12.011    1.366441  -12.230292   -2.319221
  60 C     6.0000    0    12.011    0.000002    5.205213    7.062296
  61 C     6.0000    0    12.011   -6.114759    5.204891   -3.530795
  62 C     6.0000    0    12.011    6.114756    5.204890   -3.530792
  63 C     6.0000    0    12.011    4.234553    5.473981    5.154385
  64 C     6.0000    0    12.011    6.579730    5.473742    1.090390
  65 C     6.0000    0    12.011   -4.234553    5.473980    5.154384
  66 C     6.0000    0    12.011   -2.346190    5.474158   -6.245468
  67 C     6.0000    0    12.011    2.346188    5.474158   -6.245466
  68 C     6.0000    0    12.011   -6.579732    5.473742    1.090388
  69 C     6.0000    0    12.011   -6.579758   -5.473746    1.090396
  70 C     6.0000    0    12.011   -4.234534   -5.473975    5.154367
  71 C     6.0000    0    12.011   -2.346196   -5.474160   -6.245463
  72 C     6.0000    0    12.011    6.579761   -5.473747    1.090398
  73 C     6.0000    0    12.011    4.234535   -5.473975    5.154364
  74 C     6.0000    0    12.011    2.346194   -5.474159   -6.245463
  75 C     6.0000    0    12.011   -6.114763   -5.204891   -3.530792
  76 C     6.0000    0    12.011    6.114764   -5.204891   -3.530793
  77 C     6.0000    0    12.011    0.000002   -5.205211    7.062299
  78 C     6.0000    0    12.011    0.000003    2.601473    6.953589
  79 C     6.0000    0    12.011   -6.019949    2.601270   -3.476325
  80 C     6.0000    0    12.011    6.019943    2.601269   -3.476321
  81 C     6.0000    0    12.011    4.333806    2.734613    5.188460
  82 C     6.0000    0    12.011    6.658161    2.734497    1.159471
  83 C     6.0000    0    12.011   -4.333799    2.734613    5.188450
  84 C     6.0000    0    12.011   -2.325806    2.734726   -6.348663
  85 C     6.0000    0    12.011    2.325804    2.734725   -6.348663
  86 C     6.0000    0    12.011   -6.658162    2.734497    1.159467
  87 C     6.0000    0    12.011   -6.658098   -2.734501    1.159456
  88 C     6.0000    0    12.011   -4.333833   -2.734608    5.188492
  89 C     6.0000    0    12.011   -2.325810   -2.734729   -6.348651
  90 C     6.0000    0    12.011    6.658102   -2.734501    1.159463
  91 C     6.0000    0    12.011    4.333842   -2.734608    5.188504
  92 C     6.0000    0    12.011    2.325810   -2.734728   -6.348659
  93 C     6.0000    0    12.011   -6.020001   -2.601265   -3.476352
  94 C     6.0000    0    12.011    6.019968   -2.601268   -3.476332
  95 C     6.0000    0    12.011    0.000003   -2.601473    6.953567
  96 C     6.0000    0    12.011   -5.837967    1.357900    3.371297
  97 C     6.0000    0    12.011    5.837972    1.357901    3.371306
  98 C     6.0000    0    12.011   -0.000001    1.358008   -6.743256
  99 C     6.0000    0    12.011   -6.718962    1.340047   -1.154053
 100 C     6.0000    0    12.011   -4.359631    1.340160   -5.244274
 101 C     6.0000    0    12.011   -2.360975    1.340178    6.398766
 102 C     6.0000    0    12.011    6.718956    1.340047   -1.154047
 103 C     6.0000    0    12.011    4.359629    1.340159   -5.244274
 104 C     6.0000    0    12.011    2.360987    1.340178    6.398784
 105 C     6.0000    0    12.011    2.360988   -1.340175    6.398780
 106 C     6.0000    0    12.011   -2.360974   -1.340174    6.398756
 107 C     6.0000    0    12.011    6.718955   -1.340049   -1.154049
 108 C     6.0000    0    12.011   -4.359640   -1.340160   -5.244272
 109 C     6.0000    0    12.011   -6.718960   -1.340049   -1.154056
 110 C     6.0000    0    12.011    4.359639   -1.340160   -5.244278
 111 C     6.0000    0    12.011    5.837968   -1.357900    3.371312
 112 C     6.0000    0    12.011   -0.000001   -1.358013   -6.743244
 113 C     6.0000    0    12.011   -5.837961   -1.357900    3.371302

--------------------------------
INTERNAL COORDINATES (ANGSTROEM)
--------------------------------
 C      0   0   0     0.000000000000     0.00000000     0.00000000
 C      1   0   0     1.402738001814     0.00000000     0.00000000
 C      1   2   0     1.446171811782   120.00036087     0.00000000
 C      3   1   2     1.402714037636   119.99885466     0.00000000
 C      2   1   3     1.446171955344   120.00032522     0.00000000
 C      1   2   3     1.456011800867   119.77319355   136.79486241
 C      5   2   1     1.402714234845   119.99882788     0.00000000
 C      6   1   2     1.386525713068   119.93705271     4.05942539
 C      2   1   3     1.456011728882   119.77312021   223.20515695
 C      3   1   2     1.455980799298   107.43560436   141.47170222
 C      9   2   1     1.386525455621   119.93686945   355.94094242
 C     10   3   1     1.386567103957   119.93526430   214.35794621
 C      4   3   1     1.456005272976   119.77692949   136.79607425
 C      5   2   1     1.455980835555   107.43558043   218.52845052
 C      6   1   2     1.446080508167   109.14480089   221.50178956
 C     13   4   3     1.386510767057   119.93682176     4.06485644
 C     14   5   2     1.386567184596   119.93526702   145.64202328
 C     15   6   1     1.426935956865   121.51269143   140.40980612
 C      7   5   2     1.456005207076   119.77694303   223.20391598
 C      8   6   1     1.434022628093   119.88547752   217.73626236
 C      9   2   1     1.446080556121   109.14476015   138.49804716
 C     19   7   5     1.386510674720   119.93682390   355.93523815
 C     20   8   6     7.047017704880   157.69823628   104.91420344
 C     21   9   2     1.426936126189   121.51269187   219.59022011
 C     11   9   2     1.434022565589   119.88562643   142.26433134
 C     12  10   3     1.433985032162   119.87639078   142.24826769
 C     13   4   3     1.446046566533   109.14965160   221.49695498
 C     23  20   8     4.732921511211    89.99745509   275.66068404
 C     23  20   8     2.339667017150    90.00002083    35.65536900
 C     27  13   4     1.426936048552   121.51965476   140.42551838
 C     16  13   4     1.434062175569   119.87856692   217.73426325
 C     17  14   5     1.433985094899   119.87639918   217.75173630
 C     23  20   8     2.459202968649    93.01399308   260.15606318
 C     29  23  20     4.732916215103   119.99513952   270.00289761
 C     28  23  20     2.339769727806   120.01598729    90.00669759
 C     33  23  20     1.426936313261    88.25317902   163.05707213
 C     22  19   7     1.434062115000   119.87855546   142.26571298
 C     23  20   8     1.434023933203   157.69883040     0.00000000
 C     29  23  20     2.459200043392   135.41925736   265.70388905
 C     34  29  23     2.339769144369   120.01584282     0.00000000
 C     38  23  20     1.386526595860   119.88532654   255.08585203
 C     39  29  23     1.426936889848    88.25314662   290.00574770
 C     28  23  20     1.433982680775    87.86928800   157.81011120
 C     29  23  20     1.434022011048    72.04066655   193.44595145
 C     40  34  29     2.459221969663   135.41465812   355.70873645
 C     43  28  23     1.386567388086   119.87695421    20.13561028
 C     44  29  23     1.386526171304   119.88537365   142.70403678
 C     45  40  34     1.426932895932    88.24710297   290.01804998
 C     34  29  23     1.433982955687    87.86927047   292.18848153
 C     35  28  23     1.434065293398    72.03648440    76.55585507
 C     49  34  29     1.386567388018   119.87697691   339.86431149
 C     50  35  28     1.386510603001   119.87813786   217.31647920
 C     40  34  29     1.434064964030    72.03650919   283.44407948
 C     41  38  23     1.456010791627   119.93738118   142.26324706
 C     53  40  34     1.386510564832   119.87812597   142.68358848
 C     54  41  38     1.402737452765   119.77307681   355.94003430
 C     54  41  38     1.446171093932   107.43570981   214.36192444
 C     57  54  41     1.402714121602   119.99888734   141.47481406
 C     56  54  41     1.446171376625   120.00034965   223.20560072
 C     59  56  54     1.402714465016   119.99894550     0.00000000
 C     25  11   9     1.438115053317   107.12919508   211.40006976
 C     26  12  10     1.438086477312   107.12949082   211.40999436
 C     32  17  14     1.438086394066   107.12949525   148.59001082
 C     25  11   9     1.415325727077   122.45865543   354.73505838
 C     32  17  14     1.415329443510   122.46191346     5.24673506
 C     20   8   6     1.415325856230   122.45879304     5.26361974
 C     31  16  13     1.415388881073   122.46591300     5.23796105
 C     37  22  19     1.415388842842   122.46591186   354.76206770
 C     26  12  10     1.415329494659   122.46191130   354.75327122
 C     28  23  20     1.415329166492    37.35345020   316.87639815
 C     23  20   8     1.415323676942    63.71281280   248.09205569
 C     35  28  23     1.415390813507   139.18042350   317.35165708
 C     34  29  23     1.415329810021    37.35350206   133.12232519
 C     29  23  20     1.415322303460   139.17505635   312.64313785
 C     40  34  29     1.415391029821   139.18054316    42.64843075
 C     28  23  20     1.438086717190   127.21913322    47.82026942
 C     34  29  23     1.438087002345   127.21905930    42.17829899
 C     29  23  20     1.438111000818    35.56553342    23.16268669
 C     61  25  11     1.379040516357   121.65078800   159.22552139
 C     62  26  12     1.378991479730   121.65048883   159.23085964
 C     63  32  17     1.378991433984   121.65048376   200.76918251
 C     64  25  11     1.450674135137   117.64327037   202.72772290
 C     65  32  17     1.450600720836   117.64335400   157.27805471
 C     66  20   8     1.450673850622   117.64318906   157.27261942
 C     67  31  16     1.450713588198   117.64352445   157.27552230
 C     68  37  22     1.450713444985   117.64352603   202.72441359
 C     69  26  12     1.450600770670   117.64332386   202.72198992
 C     70  28  23     1.450599046681   117.64290236   132.24090863
 C     71  23  20     1.450675074764   117.64351642   358.06356882
 C     72  35  28     1.450712385858   117.64357071   302.94101390
 C     73  34  29     1.450599604557   117.64300788   227.75920287
 C     74  29  23     1.450675160370   117.64349193    57.06485791
 C     75  40  34     1.450712718056   117.64361974    57.05904444
 C     76  28  23     1.378993055161   121.65083425   301.44370949
 C     77  34  29     1.378992332123   121.65057007    58.55536666
 C     78  29  23     1.379039913338   121.65055010   210.44631860
 C     84  66  20     1.445332158005   121.02114387   198.29073729
 C     82  64  25     1.445332316588   121.02109026   161.70935162
 C     86  68  37     1.445382789284   121.02659189   161.70236151
 C     87  69  26     1.429812589256   119.65528346     2.78289077
 C     85  67  31     1.429849615760   119.65372532   357.21668529
 C     84  66  20     1.429890182805   119.65734075   357.23107318
 C     83  65  32     1.429812479778   119.65525002   357.21700692
 C     86  68  37     1.429849513672   119.65371568     2.78335939
 C     82  64  25     1.429890453380   119.65730392     2.76919587
 C    105  82  64     1.418381733255   121.06799341   178.05267188
 C    102  84  66     1.418380981679   121.06796846   181.94717300
 C    103  83  65     1.418245572111   121.07033098   181.92979467
 C    101  85  67     1.418364021155   121.07245905   181.94737561
 C    100  87  69     1.418245915765   121.07036122   178.07019147
 C    104  86  68     1.418363939120   121.07243354   178.05273905
 C     98  82  64     1.437140076139   120.26839451   182.39527277
 C     99  86  68     1.437256790433   120.26744593   182.39924249
 C     97  84  66     1.437139934942   120.26838598   177.60495548

---------------------------
INTERNAL COORDINATES (A.U.)
---------------------------
 C      0   0   0     0.000000000000     0.00000000     0.00000000
 C      1   0   0     2.650790661072     0.00000000     0.00000000
 C      1   2   0     2.732868666865   120.00036087     0.00000000
 C      3   1   2     2.650745375340   119.99885466     0.00000000
 C      2   1   3     2.732868938158   120.00032522     0.00000000
 C      1   2   3     2.751463551395   119.77319355   136.79486241
 C      5   2   1     2.650745748010   119.99882788     0.00000000
 C      6   1   2     2.620153875339   119.93705271     4.05942539
 C      2   1   3     2.751463415364   119.77312021   223.20515695
 C      3   1   2     2.751404966921   107.43560436   141.47170222
 C      9   2   1     2.620153388834   119.93686945   355.94094242
 C     10   3   1     2.620232092783   119.93526430   214.35794621
 C      4   3   1     2.751451215469   119.77692949   136.79607425
 C      5   2   1     2.751405035436   107.43558043   218.52845052
 C      6   1   2     2.732696128038   109.14480089   221.50178956
 C     13   4   3     2.620125631471   119.93682176     4.06485644
 C     14   5   2     2.620232245169   119.93526702   145.64202328
 C     15   6   1     2.696518169119   121.51269143   140.40980612
 C      7   5   2     2.751451090937   119.77694303   223.20391598
 C      8   6   1     2.709910036942   119.88547752   217.73626236
 C      9   2   1     2.732696218656   109.14476015   138.49804716
 C     19   7   5     2.620125456980   119.93682390   355.93523815
 C     20   8   6    13.316933523117   157.69823628   104.91420344
 C     21   9   2     2.696518489096   121.51269187   219.59022011
 C     11   9   2     2.709909918826   119.88562643   142.26433134
 C     12  10   3     2.709838990929   119.87639078   142.24826769
 C     13   4   3     2.732631987644   109.14965160   221.49695498
 C     23  20   8     8.943925469533    89.99745509   275.66068404
 C     23  20   8     4.421329906983    90.00002083    35.65536900
 C     27  13   4     2.696518342383   121.51965476   140.42551838
 C     16  13   4     2.709984770841   119.87856692   217.73426325
 C     17  14   5     2.709839109484   119.87639918   217.75173630
 C     23  20   8     4.647220118472    93.01399308   260.15606318
 C     29  23  20     8.943915461339   119.99513952   270.00289761
 C     28  23  20     4.421524001993   120.01598729    90.00669759
 C     33  23  20     2.696518842610    88.25317902   163.05707213
 C     22  19   7     2.709984656382   119.87855546   142.26571298
 C     23  20   8     2.709912503243   157.69883040     0.00000000
 C     29  23  20     4.647214590538   135.41925736   265.70388905
 C     34  29  23     4.421522899457   120.01584282     0.00000000
 C     38  23  20     2.620155543574   119.88532654   255.08585203
 C     39  29  23     2.696519932202    88.25314662   290.00574770
 C     28  23  20     2.709834547450    87.86928800   157.81011120
 C     29  23  20     2.709908870896    72.04066655   193.44595145
 C     40  34  29     4.647256025185   135.41465812   355.70873645
 C     43  28  23     2.620232629708   119.87695421    20.13561028
 C     44  29  23     2.620154741280   119.88537365   142.70403678
 C     45  40  34     2.696512384794    88.24710297   290.01804998
 C     34  29  23     2.709835066960    87.86927047   292.18848153
 C     35  28  23     2.709990662683    72.03648440    76.55585507
 C     49  34  29     2.620232629581   119.87697691   339.86431149
 C     50  35  28     2.620125321450   119.87813786   217.31647920
 C     40  34  29     2.709990040268    72.03650919   283.44407948
 C     41  38  23     2.751461644208   119.93738118   142.26324706
 C     53  40  34     2.620125249321   119.87812597   142.68358848
 C     54  41  38     2.650789623521   119.77307681   355.94003430
 C     54  41  38     2.732867310324   107.43570981   214.36192444
 C     57  54  41     2.650745534012   119.99888734   141.47481406
 C     56  54  41     2.732867844538   120.00034965   223.20560072
 C     59  56  54     2.650746182970   119.99894550     0.00000000
 C     25  11   9     2.717643599839   107.12919508   211.40006976
 C     26  12  10     2.717589599015   107.12949082   211.40999436
 C     32  17  14     2.717589441703   107.12949525   148.59001082
 C     25  11   9     2.674578014469   122.45865543   354.73505838
 C     32  17  14     2.674585037509   122.46191346     5.24673506
 C     20   8   6     2.674578258532   122.45879304     5.26361974
 C     31  16  13     2.674697358225   122.46591300     5.23796105
 C     37  22  19     2.674697285979   122.46591186   354.76206770
 C     26  12  10     2.674585134166   122.46191130   354.75327122
 C     28  23  20     2.674584514021    37.35345020   316.87639815
 C     23  20   8     2.674574140274    63.71281280   248.09205569
 C     35  28  23     2.674701009997   139.18042350   317.35165708
 C     34  29  23     2.674585730114    37.35350206   133.12232519
 C     29  23  20     2.674571544769   139.17505635   312.64313785
 C     40  34  29     2.674701418770   139.18054316    42.64843075
 C     28  23  20     2.717590052319   127.21913322    47.82026942
 C     34  29  23     2.717590591184   127.21905930    42.17829899
 C     29  23  20     2.717635941725    35.56553342    23.16268669
 C     61  25  11     2.606008903496   121.65078800   159.22552139
 C     62  26  12     2.605916237700   121.65048883   159.23085964
 C     63  32  17     2.605916151253   121.65048376   200.76918251
 C     64  25  11     2.741376824972   117.64327037   202.72772290
 C     65  32  17     2.741238092049   117.64335400   157.27805471
 C     66  20   8     2.741376287316   117.64318906   157.27261942
 C     67  31  16     2.741451380452   117.64352445   157.27552230
 C     68  37  22     2.741451109819   117.64352603   202.72441359
 C     69  26  12     2.741238186221   117.64332386   202.72198992
 C     70  28  23     2.741234928354   117.64290236   132.24090863
 C     71  23  20     2.741378600610   117.64351642   358.06356882
 C     72  35  28     2.741449108360   117.64357071   302.94101390
 C     73  34  29     2.741235982587   117.64300788   227.75920287
 C     74  29  23     2.741378762382   117.64349193    57.06485791
 C     75  40  34     2.741449736123   117.64361974    57.05904444
 C     76  28  23     2.605919214834   121.65083425   301.44370949
 C     77  34  29     2.605917848490   121.65057007    58.55536666
 C     78  29  23     2.606007763956   121.65055010   210.44631860
 C     84  66  20     2.731281951179   121.02114387   198.29073729
 C     82  64  25     2.731282250858   121.02109026   161.70935162
 C     86  68  37     2.731377630430   121.02659189   161.70236151
 C     87  69  26     2.701954216527   119.65528346     2.78289077
 C     85  67  31     2.702024186479   119.65372532   357.21668529
 C     84  66  20     2.702100847085   119.65734075   357.23107318
 C     83  65  32     2.701954009644   119.65525002   357.21700692
 C     86  68  37     2.702023993561   119.65371568     2.78335939
 C     82  64  25     2.702101358398   119.65730392     2.76919587
 C    105  82  64     2.680353029208   121.06799341   178.05267188
 C    102  84  66     2.680351608936   121.06796846   181.94717300
 C    103  83  65     2.680095721935   121.07033098   181.92979467
 C    101  85  67     2.680319558190   121.07245905   181.94737561
 C    100  87  69     2.680096371349   121.07036122   178.07019147
 C    104  86  68     2.680319403166   121.07243354   178.05273905
 C     98  82  64     2.715801159985   120.26839451   182.39527277
 C     99  86  68     2.716021718038   120.26744593   182.39924249
 C     97  84  66     2.715800893163   120.26838598   177.60495548

---------------------
BASIS SET INFORMATION
---------------------
There are 1 groups of distinct atoms

 Group   1 Type C   : 7s4p1d contracted to 3s2p1d pattern {511/31/1}

Atom   0C    basis set group =>   1
Atom   1C    basis set group =>   1
Atom   2C    basis set group =>   1
Atom   3C    basis set group =>   1
Atom   4C    basis set group =>   1
Atom   5C    basis set group =>   1
Atom   6C    basis set group =>   1
Atom   7C    basis set group =>   1
Atom   8C    basis set group =>   1
Atom   9C    basis set group =>   1
Atom  10C    basis set group =>   1
Atom  11C    basis set group =>   1
Atom  12C    basis set group =>   1
Atom  13C    basis set group =>   1
Atom  14C    basis set group =>   1
Atom  15C    basis set group =>   1
Atom  16C    basis set group =>   1
Atom  17C    basis set group =>   1
Atom  18C    basis set group =>   1
Atom  19C    basis set group =>   1
Atom  20C    basis set group =>   1
Atom  21C    basis set group =>   1
Atom  22C    basis set group =>   1
Atom  23C    basis set group =>   1
Atom  24C    basis set group =>   1
Atom  25C    basis set group =>   1
Atom  26C    basis set group =>   1
Atom  27C    basis set group =>   1
Atom  28C    basis set group =>   1
Atom  29C    basis set group =>   1
Atom  30C    basis set group =>   1
Atom  31C    basis set group =>   1
Atom  32C    basis set group =>   1
Atom  33C    basis set group =>   1
Atom  34C    basis set group =>   1
Atom  35C    basis set group =>   1
Atom  36C    basis set group =>   1
Atom  37C    basis set group =>   1
Atom  38C    basis set group =>   1
Atom  39C    basis set group =>   1
Atom  40C    basis set group =>   1
Atom  41C    basis set group =>   1
Atom  42C    basis set group =>   1
Atom  43C    basis set group =>   1
Atom  44C    basis set group =>   1
Atom  45C    basis set group =>   1
Atom  46C    basis set group =>   1
Atom  47C    basis set group =>   1
Atom  48C    basis set group =>   1
Atom  49C    basis set group =>   1
Atom  50C    basis set group =>   1
Atom  51C    basis set group =>   1
Atom  52C    basis set group =>   1
Atom  53C    basis set group =>   1
Atom  54C    basis set group =>   1
Atom  55C    basis set group =>   1
Atom  56C    basis set group =>   1
Atom  57C    basis set group =>   1
Atom  58C    basis set group =>   1
Atom  59C    basis set group =>   1
Atom  60C    basis set group =>   1
Atom  61C    basis set group =>   1
Atom  62C    basis set group =>   1
Atom  63C    basis set group =>   1
Atom  64C    basis set group =>   1
Atom  65C    basis set group =>   1
Atom  66C    basis set group =>   1
Atom  67C    basis set group =>   1
Atom  68C    basis set group =>   1
Atom  69C    basis set group =>   1
Atom  70C    basis set group =>   1
Atom  71C    basis set group =>   1
Atom  72C    basis set group =>   1
Atom  73C    basis set group =>   1
Atom  74C    basis set group =>   1
Atom  75C    basis set group =>   1
Atom  76C    basis set group =>   1
Atom  77C    basis set group =>   1
Atom  78C    basis set group =>   1
Atom  79C    basis set group =>   1
Atom  80C    basis set group =>   1
Atom  81C    basis set group =>   1
Atom  82C    basis set group =>   1
Atom  83C    basis set group =>   1
Atom  84C    basis set group =>   1
Atom  85C    basis set group =>   1
Atom  86C    basis set group =>   1
Atom  87C    basis set group =>   1
Atom  88C    basis set group =>   1
Atom  89C    basis set group =>   1
Atom  90C    basis set group =>   1
Atom  91C    basis set group =>   1
Atom  92C    basis set group =>   1
Atom  93C    basis set group =>   1
Atom  94C    basis set group =>   1
Atom  95C    basis set group =>   1
Atom  96C    basis set group =>   1
Atom  97C    basis set group =>   1
Atom  98C    basis set group =>   1
Atom  99C    basis set group =>   1
Atom 100C    basis set group =>   1
Atom 101C    basis set group =>   1
Atom 102C    basis set group =>   1
Atom 103C    basis set group =>   1
Atom 104C    basis set group =>   1
Atom 105C    basis set group =>   1
Atom 106C    basis set group =>   1
Atom 107C    basis set group =>   1
Atom 108C    basis set group =>   1
Atom 109C    basis set group =>   1
Atom 110C    basis set group =>   1
Atom 111C    basis set group =>   1
Atom 112C    basis set group =>   1
Atom 113C    basis set group =>   1
---------------------------------
AUXILIARY/J BASIS SET INFORMATION
---------------------------------
There are 1 groups of distinct atoms

 Group   1 Type C   : 12s5p4d2f1g contracted to 6s4p3d1f1g pattern {711111/2111/211/2/1}

Atom   0C    basis set group =>   1
Atom   1C    basis set group =>   1
Atom   2C    basis set group =>   1
Atom   3C    basis set group =>   1
Atom   4C    basis set group =>   1
Atom   5C    basis set group =>   1
Atom   6C    basis set group =>   1
Atom   7C    basis set group =>   1
Atom   8C    basis set group =>   1
Atom   9C    basis set group =>   1
Atom  10C    basis set group =>   1
Atom  11C    basis set group =>   1
Atom  12C    basis set group =>   1
Atom  13C    basis set group =>   1
Atom  14C    basis set group =>   1
Atom  15C    basis set group =>   1
Atom  16C    basis set group =>   1
Atom  17C    basis set group =>   1
Atom  18C    basis set group =>   1
Atom  19C    basis set group =>   1
Atom  20C    basis set group =>   1
Atom  21C    basis set group =>   1
Atom  22C    basis set group =>   1
Atom  23C    basis set group =>   1
Atom  24C    basis set group =>   1
Atom  25C    basis set group =>   1
Atom  26C    basis set group =>   1
Atom  27C    basis set group =>   1
Atom  28C    basis set group =>   1
Atom  29C    basis set group =>   1
Atom  30C    basis set group =>   1
Atom  31C    basis set group =>   1
Atom  32C    basis set group =>   1
Atom  33C    basis set group =>   1
Atom  34C    basis set group =>   1
Atom  35C    basis set group =>   1
Atom  36C    basis set group =>   1
Atom  37C    basis set group =>   1
Atom  38C    basis set group =>   1
Atom  39C    basis set group =>   1
Atom  40C    basis set group =>   1
Atom  41C    basis set group =>   1
Atom  42C    basis set group =>   1
Atom  43C    basis set group =>   1
Atom  44C    basis set group =>   1
Atom  45C    basis set group =>   1
Atom  46C    basis set group =>   1
Atom  47C    basis set group =>   1
Atom  48C    basis set group =>   1
Atom  49C    basis set group =>   1
Atom  50C    basis set group =>   1
Atom  51C    basis set group =>   1
Atom  52C    basis set group =>   1
Atom  53C    basis set group =>   1
Atom  54C    basis set group =>   1
Atom  55C    basis set group =>   1
Atom  56C    basis set group =>   1
Atom  57C    basis set group =>   1
Atom  58C    basis set group =>   1
Atom  59C    basis set group =>   1
Atom  60C    basis set group =>   1
Atom  61C    basis set group =>   1
Atom  62C    basis set group =>   1
Atom  63C    basis set group =>   1
Atom  64C    basis set group =>   1
Atom  65C    basis set group =>   1
Atom  66C    basis set group =>   1
Atom  67C    basis set group =>   1
Atom  68C    basis set group =>   1
Atom  69C    basis set group =>   1
Atom  70C    basis set group =>   1
Atom  71C    basis set group =>   1
Atom  72C    basis set group =>   1
Atom  73C    basis set group =>   1
Atom  74C    basis set group =>   1
Atom  75C    basis set group =>   1
Atom  76C    basis set group =>   1
Atom  77C    basis set group =>   1
Atom  78C    basis set group =>   1
Atom  79C    basis set group =>   1
Atom  80C    basis set group =>   1
Atom  81C    basis set group =>   1
Atom  82C    basis set group =>   1
Atom  83C    basis set group =>   1
Atom  84C    basis set group =>   1
Atom  85C    basis set group =>   1
Atom  86C    basis set group =>   1
Atom  87C    basis set group =>   1
Atom  88C    basis set group =>   1
Atom  89C    basis set group =>   1
Atom  90C    basis set group =>   1
Atom  91C    basis set group =>   1
Atom  92C    basis set group =>   1
Atom  93C    basis set group =>   1
Atom  94C    basis set group =>   1
Atom  95C    basis set group =>   1
Atom  96C    basis set group =>   1
Atom  97C    basis set group =>   1
Atom  98C    basis set group =>   1
Atom  99C    basis set group =>   1
Atom 100C    basis set group =>   1
Atom 101C    basis set group =>   1
Atom 102C    basis set group =>   1
Atom 103C    basis set group =>   1
Atom 104C    basis set group =>   1
Atom 105C    basis set group =>   1
Atom 106C    basis set group =>   1
Atom 107C    basis set group =>   1
Atom 108C    basis set group =>   1
Atom 109C    basis set group =>   1
Atom 110C    basis set group =>   1
Atom 111C    basis set group =>   1
Atom 112C    basis set group =>   1
Atom 113C    basis set group =>   1


           ************************************************************
           *        Program running with 64 parallel MPI-processes    *
           *              working on a shared directory               *
           ************************************************************
------------------------------------------------------------------------------
                           ORCA GTO INTEGRAL CALCULATION
                           -- RI-GTO INTEGRALS CHOSEN --
------------------------------------------------------------------------------
------------------------------------------------------------------------------
                   ___                                                        
                  /   \      - P O W E R E D   B Y -                         
                 /     \                                                     
                 |  |  |   _    _      __       _____    __    __             
                 |  |  |  | |  | |    /  \     |  _  \  |  |  /  |          
                  \  \/   | |  | |   /    \    | | | |  |  | /  /          
                 / \  \   | |__| |  /  /\  \   | |_| |  |  |/  /          
                |  |  |   |  __  | /  /__\  \  |    /   |      \           
                |  |  |   | |  | | |   __   |  |    \   |  |\   \          
                \     /   | |  | | |  |  |  |  | |\  \  |  | \   \       
                 \___/    |_|  |_| |__|  |__|  |_| \__\ |__|  \__/        
                                                                              
                      - O R C A' S   B I G   F R I E N D -                    
                                      &                                       
                       - I N T E G R A L  F E E D E R -                       
                                                                              
 v1 FN, 2020, v2 2021                                                         
------------------------------------------------------------------------------


Reading SHARK input file ABS_c114-D3h_a.SHARKINP.tmp ... ok
----------------------
SHARK INTEGRAL PACKAGE
----------------------

Number of atoms                             ...    114
Number of basis functions                   ...   1596
Number of shells                            ...    684
Maximum angular momentum                    ...      2
Integral batch strategy                     ... SHARK/LIBINT Hybrid
RI-J (if used) integral strategy            ... SPLIT-RIJ (Revised 2003 algorithm where possible)
Printlevel                                  ...      1
Contraction scheme used                     ... SEGMENTED contraction
Coulomb Range Separation                    ... NOT USED
Exchange Range Separation                   ... NOT USED
Finite Nucleus Model                        ... NOT USED
Auxiliary Coulomb fitting basis             ... AVAILABLE
   # of basis functions in Aux-J            ...   5586
   # of shells in Aux-J                     ...   1710
   Maximum angular momentum in Aux-J        ...      4
Auxiliary J/K fitting basis                 ... NOT available
Auxiliary Correlation fitting basis         ... NOT available
Auxiliary 'external' fitting basis          ... NOT available
Integral threshold                          ...     2.500000e-11
Primitive cut-off                           ...     2.500000e-12
Primitive pair pre-selection threshold      ...     2.500000e-12

Calculating pre-screening integrals         ... done (  0.0 sec) Dimension = 684
Organizing shell pair data                  ... done (  1.0 sec)
Shell pair information
Total number of shell pairs                 ...    234270
Shell pairs after pre-screening             ...    123967
Total number of primitive shell pairs       ...    937878
Primitive shell pairs kept                  ...    265401
          la=0 lb=0:  29891 shell pairs
          la=1 lb=0:  46118 shell pairs
          la=1 lb=1:  17760 shell pairs
          la=2 lb=0:  15440 shell pairs
          la=2 lb=1:  13096 shell pairs
          la=2 lb=2:   1662 shell pairs

Calculating one electron integrals          ... done (  0.1 sec)
Calculating RI/J V-Matrix + Cholesky decomp.... done (  2.7 sec)
Calculating Nuclear repulsion               ... done (  0.0 sec) ENN=  22744.284958674227 Eh

SHARK setup successfully completed in   5.6 seconds

Maximum memory used throughout the entire GTOINT-calculation: 316.1 MB
[1717650626.352172] [nc30338:170160:0]          mpool.c:42   UCX  WARN  object 0xa6b3c80 was not returned to mpool ucp_requests
[1717650626.352190] [nc30338:170160:0]          mpool.c:42   UCX  WARN  object 0xa6b3e40 was not returned to mpool ucp_requests
[1717650626.352195] [nc30338:170160:0]          mpool.c:42   UCX  WARN  object 0xa6b4000 was not returned to mpool ucp_requests
[1717650626.352199] [nc30338:170160:0]          mpool.c:42   UCX  WARN  object 0xa6b41c0 was not returned to mpool ucp_requests
[1717650626.352203] [nc30338:170160:0]          mpool.c:42   UCX  WARN  object 0xa6b4380 was not returned to mpool ucp_requests
[1717650626.352184] [nc30338:170161:0]          mpool.c:42   UCX  WARN  object 0xa7bac80 was not returned to mpool ucp_requests
[1717650626.352195] [nc30338:170161:0]          mpool.c:42   UCX  WARN  object 0xa7bae40 was not returned to mpool ucp_requests
[1717650626.352200] [nc30338:170161:0]          mpool.c:42   UCX  WARN  object 0xa7bb000 was not returned to mpool ucp_requests
[1717650626.352204] [nc30338:170161:0]          mpool.c:42   UCX  WARN  object 0xa7bb1c0 was not returned to mpool ucp_requests
[1717650626.352206] [nc30338:170160:0]          mpool.c:42   UCX  WARN  object 0xa6b4540 was not returned to mpool ucp_requests
[1717650626.352210] [nc30338:170160:0]          mpool.c:42   UCX  WARN  object 0xa6b4700 was not returned to mpool ucp_requests
[1717650626.352207] [nc30338:170161:0]          mpool.c:42   UCX  WARN  object 0xa7bb380 was not returned to mpool ucp_requests
[1717650626.352210] [nc30338:170161:0]          mpool.c:42   UCX  WARN  object 0xa7bb540 was not returned to mpool ucp_requests
[1717650626.352213] [nc30338:170160:0]          mpool.c:42   UCX  WARN  object 0xa6b48c0 was not returned to mpool ucp_requests
[1717650626.352218] [nc30338:170160:0]          mpool.c:42   UCX  WARN  object 0xa6b4a80 was not returned to mpool ucp_requests
[1717650626.352221] [nc30338:170160:0]          mpool.c:42   UCX  WARN  object 0xa6b4c40 was not returned to mpool ucp_requests
[1717650626.352224] [nc30338:170160:0]          mpool.c:42   UCX  WARN  object 0xa6b4e00 was not returned to mpool ucp_requests
[1717650626.352227] [nc30338:170160:0]          mpool.c:42   UCX  WARN  object 0xa6b4fc0 was not returned to mpool ucp_requests
[1717650626.352231] [nc30338:170160:0]          mpool.c:42   UCX  WARN  object 0xa6b5180 was not returned to mpool ucp_requests
[1717650626.352233] [nc30338:170160:0]          mpool.c:42   UCX  WARN  object 0xa6b5340 was not returned to mpool ucp_requests
[1717650626.352237] [nc30338:170160:0]          mpool.c:42   UCX  WARN  object 0xa6b5500 was not returned to mpool ucp_requests
[1717650626.352240] [nc30338:170160:0]          mpool.c:42   UCX  WARN  object 0xa6b56c0 was not returned to mpool ucp_requests
[1717650626.352243] [nc30338:170160:0]          mpool.c:42   UCX  WARN  object 0xa6b5880 was not returned to mpool ucp_requests
[1717650626.352246] [nc30338:170160:0]          mpool.c:42   UCX  WARN  object 0xa6b5a40 was not returned to mpool ucp_requests
[1717650626.352250] [nc30338:170160:0]          mpool.c:42   UCX  WARN  object 0xa6b5c00 was not returned to mpool ucp_requests
[1717650626.352253] [nc30338:170160:0]          mpool.c:42   UCX  WARN  object 0xa6b5dc0 was not returned to mpool ucp_requests
[1717650626.352258] [nc30338:170160:0]          mpool.c:42   UCX  WARN  object 0xa6b5f80 was not returned to mpool ucp_requests
[1717650626.352260] [nc30338:170160:0]          mpool.c:42   UCX  WARN  object 0xa6b6140 was not returned to mpool ucp_requests
[1717650626.352214] [nc30338:170161:0]          mpool.c:42   UCX  WARN  object 0xa7bb700 was not returned to mpool ucp_requests
[1717650626.352217] [nc30338:170161:0]          mpool.c:42   UCX  WARN  object 0xa7bb8c0 was not returned to mpool ucp_requests
[1717650626.352220] [nc30338:170161:0]          mpool.c:42   UCX  WARN  object 0xa7bba80 was not returned to mpool ucp_requests
[1717650626.352224] [nc30338:170161:0]          mpool.c:42   UCX  WARN  object 0xa7bbc40 was not returned to mpool ucp_requests
[1717650626.352226] [nc30338:170161:0]          mpool.c:42   UCX  WARN  object 0xa7bbe00 was not returned to mpool ucp_requests
[1717650626.352230] [nc30338:170161:0]          mpool.c:42   UCX  WARN  object 0xa7bbfc0 was not returned to mpool ucp_requests
[1717650626.352234] [nc30338:170161:0]          mpool.c:42   UCX  WARN  object 0xa7bc180 was not returned to mpool ucp_requests
[1717650626.352237] [nc30338:170161:0]          mpool.c:42   UCX  WARN  object 0xa7bc340 was not returned to mpool ucp_requests
[1717650626.352240] [nc30338:170161:0]          mpool.c:42   UCX  WARN  object 0xa7bc500 was not returned to mpool ucp_requests
[1717650626.352243] [nc30338:170161:0]          mpool.c:42   UCX  WARN  object 0xa7bc6c0 was not returned to mpool ucp_requests
[1717650626.352246] [nc30338:170161:0]          mpool.c:42   UCX  WARN  object 0xa7bc880 was not returned to mpool ucp_requests
[1717650626.352251] [nc30338:170161:0]          mpool.c:42   UCX  WARN  object 0xa7bca40 was not returned to mpool ucp_requests
[1717650626.352254] [nc30338:170161:0]          mpool.c:42   UCX  WARN  object 0xa7bcc00 was not returned to mpool ucp_requests
[1717650626.352258] [nc30338:170161:0]          mpool.c:42   UCX  WARN  object 0xa7bcdc0 was not returned to mpool ucp_requests
[1717650626.352260] [nc30338:170161:0]          mpool.c:42   UCX  WARN  object 0xa7bcf80 was not returned to mpool ucp_requests
[1717650626.352263] [nc30338:170161:0]          mpool.c:42   UCX  WARN  object 0xa7bd140 was not returned to mpool ucp_requests
[1717650626.360331] [nc30352:864018:0]          mpool.c:42   UCX  WARN  object 0xb35ee80 was not returned to mpool ucp_requests
[1717650626.369056] [nc30340:359293:0]          mpool.c:42   UCX  WARN  object 0xbb2aa00 was not returned to mpool ucp_requests
[1717650626.369075] [nc30340:359293:0]          mpool.c:42   UCX  WARN  object 0xbb2abc0 was not returned to mpool ucp_requests
[1717650626.369078] [nc30340:359293:0]          mpool.c:42   UCX  WARN  object 0xbb2ad80 was not returned to mpool ucp_requests
[1717650626.369081] [nc30340:359293:0]          mpool.c:42   UCX  WARN  object 0xbb2af40 was not returned to mpool ucp_requests
[1717650626.369084] [nc30340:359293:0]          mpool.c:42   UCX  WARN  object 0xbb2b100 was not returned to mpool ucp_requests
[1717650626.369087] [nc30340:359293:0]          mpool.c:42   UCX  WARN  object 0xbb2b2c0 was not returned to mpool ucp_requests
[1717650626.369090] [nc30340:359293:0]          mpool.c:42   UCX  WARN  object 0xbb2b480 was not returned to mpool ucp_requests
[1717650626.369092] [nc30340:359293:0]          mpool.c:42   UCX  WARN  object 0xbb2b640 was not returned to mpool ucp_requests
[1717650626.369094] [nc30340:359293:0]          mpool.c:42   UCX  WARN  object 0xbb2b800 was not returned to mpool ucp_requests
[1717650626.369097] [nc30340:359293:0]          mpool.c:42   UCX  WARN  object 0xbb2b9c0 was not returned to mpool ucp_requests
[1717650626.369099] [nc30340:359293:0]          mpool.c:42   UCX  WARN  object 0xbb2bb80 was not returned to mpool ucp_requests
[1717650626.369102] [nc30340:359293:0]          mpool.c:42   UCX  WARN  object 0xbb2bd40 was not returned to mpool ucp_requests
[1717650626.369106] [nc30340:359293:0]          mpool.c:42   UCX  WARN  object 0xbb2bf00 was not returned to mpool ucp_requests
[1717650626.369110] [nc30340:359293:0]          mpool.c:42   UCX  WARN  object 0xbb2c0c0 was not returned to mpool ucp_requests
[1717650626.369113] [nc30340:359293:0]          mpool.c:42   UCX  WARN  object 0xbb2c280 was not returned to mpool ucp_requests
[1717650626.369117] [nc30340:359293:0]          mpool.c:42   UCX  WARN  object 0xbb2c440 was not returned to mpool ucp_requests
[1717650626.369120] [nc30340:359293:0]          mpool.c:42   UCX  WARN  object 0xbb2c600 was not returned to mpool ucp_requests
[1717650626.369124] [nc30340:359293:0]          mpool.c:42   UCX  WARN  object 0xbb2c7c0 was not returned to mpool ucp_requests
[1717650626.369128] [nc30340:359293:0]          mpool.c:42   UCX  WARN  object 0xbb2c980 was not returned to mpool ucp_requests
[1717650626.369132] [nc30340:359293:0]          mpool.c:42   UCX  WARN  object 0xbb2cb40 was not returned to mpool ucp_requests
[1717650626.369136] [nc30340:359293:0]          mpool.c:42   UCX  WARN  object 0xbb2cd00 was not returned to mpool ucp_requests
[1717650626.369139] [nc30340:359293:0]          mpool.c:42   UCX  WARN  object 0xbb2cec0 was not returned to mpool ucp_requests
[1717650626.373949] [nc30340:359286:0]          mpool.c:42   UCX  WARN  object 0xb10a7c0 was not returned to mpool ucp_requests
[1717650626.373970] [nc30340:359286:0]          mpool.c:42   UCX  WARN  object 0xb10a980 was not returned to mpool ucp_requests
[1717650626.373976] [nc30340:359286:0]          mpool.c:42   UCX  WARN  object 0xb10ab40 was not returned to mpool ucp_requests
[1717650626.373978] [nc30340:359286:0]          mpool.c:42   UCX  WARN  object 0xb10ad00 was not returned to mpool ucp_requests
[1717650626.373982] [nc30340:359286:0]          mpool.c:42   UCX  WARN  object 0xb10aec0 was not returned to mpool ucp_requests
[1717650626.373987] [nc30340:359286:0]          mpool.c:42   UCX  WARN  object 0xb10b080 was not returned to mpool ucp_requests
[1717650626.373991] [nc30340:359286:0]          mpool.c:42   UCX  WARN  object 0xb10b240 was not returned to mpool ucp_requests
[1717650626.373995] [nc30340:359286:0]          mpool.c:42   UCX  WARN  object 0xb10b400 was not returned to mpool ucp_requests
[1717650626.373998] [nc30340:359286:0]          mpool.c:42   UCX  WARN  object 0xb10b5c0 was not returned to mpool ucp_requests
[1717650626.374002] [nc30340:359286:0]          mpool.c:42   UCX  WARN  object 0xb10b780 was not returned to mpool ucp_requests
[1717650626.374005] [nc30340:359286:0]          mpool.c:42   UCX  WARN  object 0xb10b940 was not returned to mpool ucp_requests
[1717650626.374009] [nc30340:359286:0]          mpool.c:42   UCX  WARN  object 0xb10bb00 was not returned to mpool ucp_requests
[1717650626.374012] [nc30340:359286:0]          mpool.c:42   UCX  WARN  object 0xb10bcc0 was not returned to mpool ucp_requests
[1717650626.374016] [nc30340:359286:0]          mpool.c:42   UCX  WARN  object 0xb10be80 was not returned to mpool ucp_requests
[1717650626.374019] [nc30340:359286:0]          mpool.c:42   UCX  WARN  object 0xb10c040 was not returned to mpool ucp_requests
[1717650626.374023] [nc30340:359286:0]          mpool.c:42   UCX  WARN  object 0xb10c200 was not returned to mpool ucp_requests
[1717650626.374026] [nc30340:359286:0]          mpool.c:42   UCX  WARN  object 0xb10c3c0 was not returned to mpool ucp_requests
[1717650626.374029] [nc30340:359286:0]          mpool.c:42   UCX  WARN  object 0xb10c580 was not returned to mpool ucp_requests
[1717650626.374033] [nc30340:359286:0]          mpool.c:42   UCX  WARN  object 0xb10c740 was not returned to mpool ucp_requests
[1717650626.374036] [nc30340:359286:0]          mpool.c:42   UCX  WARN  object 0xb10c900 was not returned to mpool ucp_requests
[1717650626.374040] [nc30340:359286:0]          mpool.c:42   UCX  WARN  object 0xb10cac0 was not returned to mpool ucp_requests
[1717650626.374043] [nc30340:359286:0]          mpool.c:42   UCX  WARN  object 0xb10cc80 was not returned to mpool ucp_requests
[1717650626.374322] [nc30340:359281:0]          mpool.c:42   UCX  WARN  object 0xaaa8980 was not returned to mpool ucp_requests
[1717650626.374351] [nc30340:359281:0]          mpool.c:42   UCX  WARN  object 0xaaa8b40 was not returned to mpool ucp_requests
[1717650626.374355] [nc30340:359281:0]          mpool.c:42   UCX  WARN  object 0xaaa8d00 was not returned to mpool ucp_requests
[1717650626.374358] [nc30340:359281:0]          mpool.c:42   UCX  WARN  object 0xaaa8ec0 was not returned to mpool ucp_requests
[1717650626.374362] [nc30340:359281:0]          mpool.c:42   UCX  WARN  object 0xaaa9080 was not returned to mpool ucp_requests
[1717650626.374365] [nc30340:359281:0]          mpool.c:42   UCX  WARN  object 0xaaa9240 was not returned to mpool ucp_requests
[1717650626.374367] [nc30340:359281:0]          mpool.c:42   UCX  WARN  object 0xaaa9400 was not returned to mpool ucp_requests
[1717650626.374370] [nc30340:359281:0]          mpool.c:42   UCX  WARN  object 0xaaa95c0 was not returned to mpool ucp_requests
[1717650626.374372] [nc30340:359281:0]          mpool.c:42   UCX  WARN  object 0xaaa9780 was not returned to mpool ucp_requests
[1717650626.374375] [nc30340:359281:0]          mpool.c:42   UCX  WARN  object 0xaaa9940 was not returned to mpool ucp_requests
[1717650626.374378] [nc30340:359281:0]          mpool.c:42   UCX  WARN  object 0xaaa9b00 was not returned to mpool ucp_requests
[1717650626.374380] [nc30340:359281:0]          mpool.c:42   UCX  WARN  object 0xaaa9cc0 was not returned to mpool ucp_requests
[1717650626.374384] [nc30340:359281:0]          mpool.c:42   UCX  WARN  object 0xaaa9e80 was not returned to mpool ucp_requests
[1717650626.374387] [nc30340:359281:0]          mpool.c:42   UCX  WARN  object 0xaaaa040 was not returned to mpool ucp_requests
[1717650626.374389] [nc30340:359281:0]          mpool.c:42   UCX  WARN  object 0xaaaa200 was not returned to mpool ucp_requests
[1717650626.374392] [nc30340:359281:0]          mpool.c:42   UCX  WARN  object 0xaaaa3c0 was not returned to mpool ucp_requests
[1717650626.374395] [nc30340:359281:0]          mpool.c:42   UCX  WARN  object 0xaaaa580 was not returned to mpool ucp_requests
[1717650626.374397] [nc30340:359281:0]          mpool.c:42   UCX  WARN  object 0xaaaa740 was not returned to mpool ucp_requests
[1717650626.374400] [nc30340:359281:0]          mpool.c:42   UCX  WARN  object 0xaaaa900 was not returned to mpool ucp_requests
[1717650626.374402] [nc30340:359281:0]          mpool.c:42   UCX  WARN  object 0xaaaaac0 was not returned to mpool ucp_requests
[1717650626.374405] [nc30340:359281:0]          mpool.c:42   UCX  WARN  object 0xaaaac80 was not returned to mpool ucp_requests
[1717650626.374409] [nc30340:359281:0]          mpool.c:42   UCX  WARN  object 0xaaaae40 was not returned to mpool ucp_requests
[1717650626.375935] [nc30340:359290:0]          mpool.c:42   UCX  WARN  object 0xbe47a00 was not returned to mpool ucp_requests
[1717650626.375955] [nc30340:359290:0]          mpool.c:42   UCX  WARN  object 0xbe47bc0 was not returned to mpool ucp_requests
[1717650626.375961] [nc30340:359290:0]          mpool.c:42   UCX  WARN  object 0xbe47d80 was not returned to mpool ucp_requests
[1717650626.375964] [nc30340:359290:0]          mpool.c:42   UCX  WARN  object 0xbe47f40 was not returned to mpool ucp_requests
[1717650626.375968] [nc30340:359290:0]          mpool.c:42   UCX  WARN  object 0xbe48100 was not returned to mpool ucp_requests
[1717650626.375972] [nc30340:359290:0]          mpool.c:42   UCX  WARN  object 0xbe482c0 was not returned to mpool ucp_requests
[1717650626.375975] [nc30340:359290:0]          mpool.c:42   UCX  WARN  object 0xbe48480 was not returned to mpool ucp_requests
[1717650626.375979] [nc30340:359290:0]          mpool.c:42   UCX  WARN  object 0xbe48640 was not returned to mpool ucp_requests
[1717650626.375982] [nc30340:359290:0]          mpool.c:42   UCX  WARN  object 0xbe48800 was not returned to mpool ucp_requests
[1717650626.375985] [nc30340:359290:0]          mpool.c:42   UCX  WARN  object 0xbe489c0 was not returned to mpool ucp_requests
[1717650626.375988] [nc30340:359290:0]          mpool.c:42   UCX  WARN  object 0xbe48b80 was not returned to mpool ucp_requests
[1717650626.375992] [nc30340:359290:0]          mpool.c:42   UCX  WARN  object 0xbe48d40 was not returned to mpool ucp_requests
[1717650626.375995] [nc30340:359290:0]          mpool.c:42   UCX  WARN  object 0xbe48f00 was not returned to mpool ucp_requests
[1717650626.376000] [nc30340:359290:0]          mpool.c:42   UCX  WARN  object 0xbe490c0 was not returned to mpool ucp_requests
[1717650626.376003] [nc30340:359290:0]          mpool.c:42   UCX  WARN  object 0xbe49280 was not returned to mpool ucp_requests
[1717650626.376006] [nc30340:359290:0]          mpool.c:42   UCX  WARN  object 0xbe49440 was not returned to mpool ucp_requests
[1717650626.376009] [nc30340:359290:0]          mpool.c:42   UCX  WARN  object 0xbe49600 was not returned to mpool ucp_requests
[1717650626.376013] [nc30340:359290:0]          mpool.c:42   UCX  WARN  object 0xbe497c0 was not returned to mpool ucp_requests
[1717650626.376016] [nc30340:359290:0]          mpool.c:42   UCX  WARN  object 0xbe49980 was not returned to mpool ucp_requests
[1717650626.376020] [nc30340:359290:0]          mpool.c:42   UCX  WARN  object 0xbe49b40 was not returned to mpool ucp_requests
[1717650626.376024] [nc30340:359290:0]          mpool.c:42   UCX  WARN  object 0xbe49d00 was not returned to mpool ucp_requests
[1717650626.376027] [nc30340:359290:0]          mpool.c:42   UCX  WARN  object 0xbe49ec0 was not returned to mpool ucp_requests
[1717650626.376241] [nc30340:359288:0]          mpool.c:42   UCX  WARN  object 0xb7a8980 was not returned to mpool ucp_requests
[1717650626.376259] [nc30340:359288:0]          mpool.c:42   UCX  WARN  object 0xb7a8b40 was not returned to mpool ucp_requests
[1717650626.376263] [nc30340:359288:0]          mpool.c:42   UCX  WARN  object 0xb7a8d00 was not returned to mpool ucp_requests
[1717650626.376265] [nc30340:359288:0]          mpool.c:42   UCX  WARN  object 0xb7a8ec0 was not returned to mpool ucp_requests
[1717650626.376268] [nc30340:359288:0]          mpool.c:42   UCX  WARN  object 0xb7a9080 was not returned to mpool ucp_requests
[1717650626.376271] [nc30340:359288:0]          mpool.c:42   UCX  WARN  object 0xb7a9240 was not returned to mpool ucp_requests
[1717650626.376273] [nc30340:359288:0]          mpool.c:42   UCX  WARN  object 0xb7a9400 was not returned to mpool ucp_requests
[1717650626.376276] [nc30340:359288:0]          mpool.c:42   UCX  WARN  object 0xb7a95c0 was not returned to mpool ucp_requests
[1717650626.376278] [nc30340:359288:0]          mpool.c:42   UCX  WARN  object 0xb7a9780 was not returned to mpool ucp_requests
[1717650626.376280] [nc30340:359288:0]          mpool.c:42   UCX  WARN  object 0xb7a9940 was not returned to mpool ucp_requests
[1717650626.376283] [nc30340:359288:0]          mpool.c:42   UCX  WARN  object 0xb7a9b00 was not returned to mpool ucp_requests
[1717650626.376285] [nc30340:359288:0]          mpool.c:42   UCX  WARN  object 0xb7a9cc0 was not returned to mpool ucp_requests
[1717650626.376287] [nc30340:359288:0]          mpool.c:42   UCX  WARN  object 0xb7a9e80 was not returned to mpool ucp_requests
[1717650626.376290] [nc30340:359288:0]          mpool.c:42   UCX  WARN  object 0xb7aa040 was not returned to mpool ucp_requests
[1717650626.376293] [nc30340:359288:0]          mpool.c:42   UCX  WARN  object 0xb7aa200 was not returned to mpool ucp_requests
[1717650626.376296] [nc30340:359288:0]          mpool.c:42   UCX  WARN  object 0xb7aa3c0 was not returned to mpool ucp_requests
[1717650626.376298] [nc30340:359288:0]          mpool.c:42   UCX  WARN  object 0xb7aa580 was not returned to mpool ucp_requests
[1717650626.376300] [nc30340:359288:0]          mpool.c:42   UCX  WARN  object 0xb7aa740 was not returned to mpool ucp_requests
[1717650626.376303] [nc30340:359288:0]          mpool.c:42   UCX  WARN  object 0xb7aa900 was not returned to mpool ucp_requests
[1717650626.376305] [nc30340:359288:0]          mpool.c:42   UCX  WARN  object 0xb7aaac0 was not returned to mpool ucp_requests
[1717650626.376307] [nc30340:359288:0]          mpool.c:42   UCX  WARN  object 0xb7aac80 was not returned to mpool ucp_requests
[1717650626.376310] [nc30340:359288:0]          mpool.c:42   UCX  WARN  object 0xb7aae40 was not returned to mpool ucp_requests
[1717650626.376187] [nc30340:359280:0]          mpool.c:42   UCX  WARN  object 0xb050300 was not returned to mpool ucp_requests
[1717650626.376199] [nc30340:359280:0]          mpool.c:42   UCX  WARN  object 0xb0504c0 was not returned to mpool ucp_requests
[1717650626.376204] [nc30340:359280:0]          mpool.c:42   UCX  WARN  object 0xb050680 was not returned to mpool ucp_requests
[1717650626.376207] [nc30340:359280:0]          mpool.c:42   UCX  WARN  object 0xb050840 was not returned to mpool ucp_requests
[1717650626.376211] [nc30340:359280:0]          mpool.c:42   UCX  WARN  object 0xb050a00 was not returned to mpool ucp_requests
[1717650626.376214] [nc30340:359280:0]          mpool.c:42   UCX  WARN  object 0xb050bc0 was not returned to mpool ucp_requests
[1717650626.376218] [nc30340:359280:0]          mpool.c:42   UCX  WARN  object 0xb050d80 was not returned to mpool ucp_requests
[1717650626.376221] [nc30340:359280:0]          mpool.c:42   UCX  WARN  object 0xb050f40 was not returned to mpool ucp_requests
[1717650626.376226] [nc30340:359280:0]          mpool.c:42   UCX  WARN  object 0xb051100 was not returned to mpool ucp_requests
[1717650626.376229] [nc30340:359280:0]          mpool.c:42   UCX  WARN  object 0xb0512c0 was not returned to mpool ucp_requests
[1717650626.376232] [nc30340:359280:0]          mpool.c:42   UCX  WARN  object 0xb051480 was not returned to mpool ucp_requests
[1717650626.376236] [nc30340:359280:0]          mpool.c:42   UCX  WARN  object 0xb051640 was not returned to mpool ucp_requests
[1717650626.376239] [nc30340:359280:0]          mpool.c:42   UCX  WARN  object 0xb051800 was not returned to mpool ucp_requests
[1717650626.376242] [nc30340:359280:0]          mpool.c:42   UCX  WARN  object 0xb0519c0 was not returned to mpool ucp_requests
[1717650626.376246] [nc30340:359280:0]          mpool.c:42   UCX  WARN  object 0xb051b80 was not returned to mpool ucp_requests
[1717650626.376249] [nc30340:359280:0]          mpool.c:42   UCX  WARN  object 0xb051d40 was not returned to mpool ucp_requests
[1717650626.376252] [nc30340:359280:0]          mpool.c:42   UCX  WARN  object 0xb051f00 was not returned to mpool ucp_requests
[1717650626.376256] [nc30340:359280:0]          mpool.c:42   UCX  WARN  object 0xb0520c0 was not returned to mpool ucp_requests
[1717650626.376259] [nc30340:359280:0]          mpool.c:42   UCX  WARN  object 0xb052280 was not returned to mpool ucp_requests
[1717650626.376262] [nc30340:359280:0]          mpool.c:42   UCX  WARN  object 0xb052440 was not returned to mpool ucp_requests
[1717650626.376265] [nc30340:359280:0]          mpool.c:42   UCX  WARN  object 0xb052600 was not returned to mpool ucp_requests
[1717650626.376269] [nc30340:359280:0]          mpool.c:42   UCX  WARN  object 0xb0527c0 was not returned to mpool ucp_requests
[1717650626.376132] [nc30340:359282:0]          mpool.c:42   UCX  WARN  object 0xba8b980 was not returned to mpool ucp_requests
[1717650626.376152] [nc30340:359282:0]          mpool.c:42   UCX  WARN  object 0xba8bb40 was not returned to mpool ucp_requests
[1717650626.376156] [nc30340:359282:0]          mpool.c:42   UCX  WARN  object 0xba8bd00 was not returned to mpool ucp_requests
[1717650626.376158] [nc30340:359282:0]          mpool.c:42   UCX  WARN  object 0xba8bec0 was not returned to mpool ucp_requests
[1717650626.376162] [nc30340:359282:0]          mpool.c:42   UCX  WARN  object 0xba8c080 was not returned to mpool ucp_requests
[1717650626.376165] [nc30340:359282:0]          mpool.c:42   UCX  WARN  object 0xba8c240 was not returned to mpool ucp_requests
[1717650626.376167] [nc30340:359282:0]          mpool.c:42   UCX  WARN  object 0xba8c400 was not returned to mpool ucp_requests
[1717650626.376170] [nc30340:359282:0]          mpool.c:42   UCX  WARN  object 0xba8c5c0 was not returned to mpool ucp_requests
[1717650626.376172] [nc30340:359282:0]          mpool.c:42   UCX  WARN  object 0xba8c780 was not returned to mpool ucp_requests
[1717650626.376174] [nc30340:359282:0]          mpool.c:42   UCX  WARN  object 0xba8c940 was not returned to mpool ucp_requests
[1717650626.376177] [nc30340:359282:0]          mpool.c:42   UCX  WARN  object 0xba8cb00 was not returned to mpool ucp_requests
[1717650626.376179] [nc30340:359282:0]          mpool.c:42   UCX  WARN  object 0xba8ccc0 was not returned to mpool ucp_requests
[1717650626.376182] [nc30340:359282:0]          mpool.c:42   UCX  WARN  object 0xba8ce80 was not returned to mpool ucp_requests
[1717650626.376185] [nc30340:359282:0]          mpool.c:42   UCX  WARN  object 0xba8d040 was not returned to mpool ucp_requests
[1717650626.376187] [nc30340:359282:0]          mpool.c:42   UCX  WARN  object 0xba8d200 was not returned to mpool ucp_requests
[1717650626.376189] [nc30340:359282:0]          mpool.c:42   UCX  WARN  object 0xba8d3c0 was not returned to mpool ucp_requests
[1717650626.376192] [nc30340:359282:0]          mpool.c:42   UCX  WARN  object 0xba8d580 was not returned to mpool ucp_requests
[1717650626.376194] [nc30340:359282:0]          mpool.c:42   UCX  WARN  object 0xba8d740 was not returned to mpool ucp_requests
[1717650626.376197] [nc30340:359282:0]          mpool.c:42   UCX  WARN  object 0xba8d900 was not returned to mpool ucp_requests
[1717650626.376199] [nc30340:359282:0]          mpool.c:42   UCX  WARN  object 0xba8dac0 was not returned to mpool ucp_requests
[1717650626.376201] [nc30340:359282:0]          mpool.c:42   UCX  WARN  object 0xba8dc80 was not returned to mpool ucp_requests
[1717650626.376547] [nc30341:3027570:0]          mpool.c:42   UCX  WARN  object 0xb5a3240 was not returned to mpool ucp_requests
[1717650626.376585] [nc30341:3027570:0]          mpool.c:42   UCX  WARN  object 0xb5a3400 was not returned to mpool ucp_requests
[1717650626.376591] [nc30341:3027570:0]          mpool.c:42   UCX  WARN  object 0xb5a35c0 was not returned to mpool ucp_requests
[1717650626.376594] [nc30341:3027570:0]          mpool.c:42   UCX  WARN  object 0xb5a3780 was not returned to mpool ucp_requests
[1717650626.376598] [nc30341:3027570:0]          mpool.c:42   UCX  WARN  object 0xb5a3940 was not returned to mpool ucp_requests
[1717650626.376602] [nc30341:3027570:0]          mpool.c:42   UCX  WARN  object 0xb5a3b00 was not returned to mpool ucp_requests
[1717650626.376606] [nc30341:3027570:0]          mpool.c:42   UCX  WARN  object 0xb5a3cc0 was not returned to mpool ucp_requests
[1717650626.376609] [nc30341:3027570:0]          mpool.c:42   UCX  WARN  object 0xb5a3e80 was not returned to mpool ucp_requests
[1717650626.376612] [nc30341:3027570:0]          mpool.c:42   UCX  WARN  object 0xb5a4040 was not returned to mpool ucp_requests
[1717650626.376615] [nc30341:3027570:0]          mpool.c:42   UCX  WARN  object 0xb5a4200 was not returned to mpool ucp_requests
[1717650626.376618] [nc30341:3027570:0]          mpool.c:42   UCX  WARN  object 0xb5a43c0 was not returned to mpool ucp_requests
[1717650626.376621] [nc30341:3027570:0]          mpool.c:42   UCX  WARN  object 0xb5a4580 was not returned to mpool ucp_requests
[1717650626.376624] [nc30341:3027570:0]          mpool.c:42   UCX  WARN  object 0xb5a4740 was not returned to mpool ucp_requests
[1717650626.376627] [nc30341:3027570:0]          mpool.c:42   UCX  WARN  object 0xb5a4900 was not returned to mpool ucp_requests
[1717650626.376629] [nc30341:3027570:0]          mpool.c:42   UCX  WARN  object 0xb5a4ac0 was not returned to mpool ucp_requests
[1717650626.376632] [nc30341:3027570:0]          mpool.c:42   UCX  WARN  object 0xb5a4c80 was not returned to mpool ucp_requests
[1717650626.376634] [nc30341:3027570:0]          mpool.c:42   UCX  WARN  object 0xb5a4e40 was not returned to mpool ucp_requests
[1717650626.376637] [nc30341:3027570:0]          mpool.c:42   UCX  WARN  object 0xb5a5000 was not returned to mpool ucp_requests
[1717650626.376639] [nc30341:3027570:0]          mpool.c:42   UCX  WARN  object 0xb5a51c0 was not returned to mpool ucp_requests
[...]
 146   30860.9    324.0     -0.00045   0.00085  -0.00004   0.68425
 147   30929.7    323.3      0.00007  -0.00009  -0.00001   0.01439
 148   31006.1    322.5      0.00012  -0.00233   0.00000   0.00001
 149   31125.4    321.3     -0.00002  -0.00006  -0.00003   0.01358
 150   31535.5    317.1      0.00231   0.00001  -0.00028   0.00001
 151   31536.7    317.1     -0.00039  -0.00004   0.00008   0.00000
 152   31628.7    316.2      0.00003   0.00544   0.00000  -0.00001
 153   31655.3    315.9      0.00008  -0.00000  -2.22320  -0.00016
 154   31689.3    315.6      0.00031  -0.00041  -0.00328   0.06372
 155   31689.5    315.6      0.00018  -0.06197   0.00011  -0.00042
 156   31696.0    315.5      0.00000  -0.00005  -0.00004  -0.00059
 157   31810.0    314.4     -0.00909  -0.00002  -0.00054   0.40883
 158   31811.0    314.4     -0.00313   0.41144  -0.00001   0.00002
 159   31848.1    314.0      0.00248  -0.00002  -0.00296  -0.00007
 160   31850.3    314.0      0.00909  -0.00019  -0.00005  -0.00006
 161   31883.7    313.6      0.00012  -0.00000  -0.26143  -0.00015
 162   31985.8    312.6     -0.00000   0.00012   0.00000   0.00186
 163   32006.4    312.4      0.00037   0.00109   0.00006   0.17868
 164   32006.7    312.4      0.00026  -0.18066  -0.00001   0.00108
 165   32036.9    312.1     -0.00042   0.00001   0.00397  -0.00002
 166   32037.1    312.1      0.00068  -0.00001   0.00001   0.00001
 167   32040.2    312.1      0.00014  -0.00365   0.00000  -0.00002
 168   32471.5    308.0      0.00367   0.00005   0.00032  -0.00013
 169   32474.3    307.9     -0.00008  -0.00014  -0.00001  -0.00000
 170   32482.6    307.9     -0.00388   0.32668  -0.00000  -0.00007
 171   32483.0    307.9     -0.00020  -0.00007   0.00001  -0.32688
 172   32534.8    307.4     -0.00001  -0.00005  -0.00001   0.00001
 173   32693.7    305.9     -0.00020  -0.00000   0.00046   0.00000
 174   32695.5    305.9      0.00054   0.00001   0.00000   0.00001
 175   32891.1    304.0      0.00036  -0.00258   0.00002   0.50562
 176   32891.8    304.0     -0.00053  -0.50454   0.00000  -0.00259
 177   32960.9    303.4      0.00056  -0.00001  -0.00033   0.00003
 178   32962.0    303.4     -0.00077  -0.00005  -0.00001  -0.00002
 179   32998.1    303.0      0.00194   0.00465  -0.00001  -0.00000
 180   33125.0    301.9     -0.00135  -0.00001  -0.39539  -0.00008
 181   33225.2    301.0     -0.00025  -0.00000   0.00005   0.00001
 182   33225.6    301.0     -0.00042   0.00001  -0.00002   0.00000
 183   33383.7    299.5     -0.00024  -0.00000   0.00035  -0.00009
 184   33385.2    299.5      0.00006   0.00008  -0.00000  -0.00000
 185   33409.3    299.3      0.00001   0.00003  -0.00000  -0.00000
 186   33445.2    299.0     -0.00354   0.00049   0.00012  -0.63766
 187   33446.4    299.0      0.00143   0.64015  -0.00000   0.00056
 188   33462.4    298.8     -0.00055   0.00002   0.00032   0.00013
 189   33467.3    298.8      0.00152   0.00005  -0.00004  -0.00005
 190   33488.3    298.6      0.00005   0.00001   0.16169   0.00003
 191   33634.2    297.3     -0.00065   0.00251   0.00036   0.84486
 192   33635.1    297.3      0.00034  -0.84617   0.00001   0.00254
 193   33707.0    296.7      0.00042  -0.00001  -1.39697   0.00027
 194   33804.2    295.8     -0.00039  -0.00010   0.00011  -0.00001
 195   33804.5    295.8      0.00033   0.00000  -0.00065  -0.00014
 196   33857.8    295.4     -0.00000   0.00000  -0.00016  -0.00115
 197   33884.6    295.1     -0.00036  -0.00186  -0.00001   0.00001
 198   33929.5    294.7     -0.00003  -0.00000   0.00039  -0.00003
 199   33930.9    294.7     -0.00014  -0.00007  -0.00002  -0.00001
 200   34080.7    293.4      0.00000   0.00015  -0.00000   0.00000
 201   34226.9    292.2      0.00314   0.00005  -0.00053  -0.00001
 202   34229.8    292.1     -0.00215  -0.00008   0.00002  -0.00004
 203   34243.7    292.0     -0.00220  -0.50752  -0.00000  -0.00499
 204   34244.6    292.0     -0.00006  -0.00478   0.00005   0.53490
 205   34281.1    291.7      0.00090   1.06082   0.00001   0.02414
 206   34281.4    291.7      0.00540   0.02438  -0.00012  -1.04979
 207   34315.0    291.4     -0.00182   0.00002  -0.00055   0.00017
 208   34315.5    291.4     -0.00269   0.00036  -0.00002  -0.00003
 209   34445.5    290.3     -0.00012   0.22563  -0.00000   0.00083
 210   34446.0    290.3      0.00036  -0.00083   0.00003   0.22813
 211   34575.9    289.2     -0.00055  -0.00001  -0.00069  -0.00027
 212   34577.1    289.2     -0.00202   0.00013   0.00001   0.00001
 213   34605.5    289.0      0.00243  -0.44510  -0.00000  -0.01513
 214   34605.9    289.0     -0.00003   0.01525  -0.00002  -0.43904
 215   34620.5    288.8     -0.00025  -0.00029   0.00003   0.06707
 216   34630.9    288.8     -0.00018  -0.00952  -0.00000  -0.00026
 217   34666.2    288.5      0.00020  -0.00002  -0.00036  -0.00009
 218   34667.8    288.5     -0.00006  -0.00009  -0.00001   0.00001
 219   34824.6    287.2     -0.00000  -0.00008   0.00000   0.00000
 220   34873.3    286.8      0.00019   0.00105  -0.00000  -0.00002
 221   34880.2    286.7      0.00007   0.00001   0.00036   0.00003
 222   34881.0    286.7     -0.00002   0.00003  -0.00000  -0.00000
 223   35004.9    285.7      0.00009  -0.27268   0.00001  -0.00206
 224   35005.4    285.7      0.00001  -0.00203  -0.00009   0.27531
 225   35035.3    285.4      0.00009   0.00000   0.14255   0.00010
 226   35134.0    284.6      0.00007  -0.00199  -0.00000  -0.00003
 227   35146.0    284.5     -0.00007  -0.00001   0.00047   0.00002
 228   35146.7    284.5      0.00001   0.00002   0.00001   0.00000
 229   35210.8    284.0     -0.00016   0.00001   0.00056   0.00003
 230   35211.4    284.0      0.00010  -0.00001   0.00001   0.00001
 231   35246.5    283.7     -0.00017  -0.38790   0.00001  -0.00270
 232   35247.5    283.7     -0.00051   0.00270   0.00002  -0.38481
 233   35287.0    283.4      0.00000   0.00001   0.02051   0.00007
 234   35319.3    283.1     -0.00013   0.00001   0.13399   0.00016
 235   35326.6    283.1      0.00000  -0.00008   0.00008   0.00857
 236   35427.7    282.3      0.00064   0.00002   0.01130   0.00010
 237   35428.0    282.3      0.00082   0.00002   0.00009   0.00003
 238   35479.1    281.9      0.00108   0.58909  -0.00006   0.00085
 239   35479.8    281.9     -0.00024  -0.00086   0.00026   0.59244
 240   35481.9    281.8      0.00002   0.00014   0.24144  -0.00064
 241   35560.3    281.2      0.00001   0.00002   0.00002  -0.00265
 242   35589.9    281.0     -0.00002  -0.00008  -0.00001   0.00000
 243   35591.6    281.0     -0.00203  -0.00002  -0.00026   0.00013
 244   35622.0    280.7      0.00001   0.00003  -0.00000  -0.00001
 245   35709.3    280.0     -0.00042  -0.00000   0.00142   0.00003
 246   35709.4    280.0      0.00015   0.00001   0.00002  -0.00000
 247   35755.7    279.7     -0.00000  -0.00001  -0.00001  -0.00029
 248   35795.4    279.4     -0.00007  -0.00174  -0.00000  -0.00001
 249   35903.8    278.5      0.00000   0.00001   0.00000  -0.00001
 250   35917.8    278.4     -0.00000  -0.00002  -0.00000   0.00000
 251   36011.9    277.7     -0.00006   0.00000   0.00083   0.00002
 252   36012.1    277.7     -0.00013  -0.00008  -0.00000  -0.00000
 253   36012.4    277.7     -0.00007   0.00004   0.00001   0.00000
 254   36127.6    276.8     -0.00013  -0.00000  -0.02109  -0.00006
 255   36128.4    276.8     -0.00094   0.00003   0.00003   0.00002
 256   36171.4    276.5      0.00037   0.44351  -0.00001   0.00103
 257   36171.7    276.5      0.00015  -0.00105   0.00016   0.44177
 258   36237.1    276.0      0.00012   0.00001   0.61498  -0.00009
 259   36370.8    274.9     -0.00028  -0.00558  -0.00000  -0.00005
 260   36466.0    274.2     -0.00000   0.00002   0.00000   0.00728
 261   36573.9    273.4     -0.00017   0.00066   0.00009   0.00001
 262   36574.1    273.4     -0.00001   0.00003   0.00226   0.00076
 263   36580.7    273.4      0.00092   0.00948  -0.00003  -1.07591
 264   36580.9    273.4      0.00062  -1.07568   0.00000  -0.00950
 265   36715.9    272.4     -0.00054  -0.01332  -0.00002  -0.00005
 266   36731.4    272.2     -0.00001  -0.00000  -0.00453  -0.00002
 267   36731.4    272.2      0.00003  -0.00000  -0.00041  -0.00000
 268   36742.2    272.2      0.00021   0.00001  -0.30742  -0.00002
 269   36759.7    272.0      0.00000   0.00000  -0.00001  -0.00000
 270   36775.1    271.9     -0.00000   0.00006  -0.00003   0.00101
 271   36833.7    271.5      0.00000  -0.00000  -0.03346   0.00005
 272   36834.5    271.5     -0.00002   0.00002  -0.00032  -0.00000
 273   36842.1    271.4      0.00040  -0.00001   0.51123  -0.00011
 274   36902.7    271.0      0.00004   0.00077  -0.00004  -0.36220
 275   36903.1    271.0     -0.00006   0.37414   0.00001   0.00087
 276   36906.7    271.0      0.00000  -0.00036   0.00002   0.07807
 277   36920.3    270.9      0.00000   0.00004  -0.00001   0.00001
 278   36937.5    270.7      0.00035   0.00293  -0.00001  -0.00004
 279   36970.6    270.5      0.00035   0.00002   0.00183   0.00022
 280   36970.8    270.5     -0.00025  -0.00029   0.00014   0.00000
 281   37155.7    269.1     -0.00061  -0.00007   0.00000  -0.00002
 282   37161.8    269.1      0.00001  -0.00014   0.00002  -0.00930
 283   37213.1    268.7     -0.00057   0.00055  -0.00002  -0.00007
 284   37213.8    268.7      0.00032   0.00004   0.00167   0.00039
 285   37242.6    268.5      0.00020  -0.78570   0.00001   0.03814
 286   37242.7    268.5     -0.00043   0.03785   0.00010   0.79082
 287   37361.0    267.7      0.00018   0.00426  -0.00000  -0.00002
 288   37378.1    267.5     -0.00025  -0.00000  -0.53038   0.00016
 289   37461.6    266.9      0.00000  -0.00005  -0.00002   0.00001
 290   37494.4    266.7     -0.00000   0.00003  -0.00001  -0.00039
 291   37532.9    266.4     -0.00011   0.00000   0.00032   0.00010
 292   37533.2    266.4      0.00133  -0.00009  -0.00005  -0.00001
 293   37537.0    266.4      0.00015   0.00174  -0.00000  -0.00003
 294   37650.7    265.6     -0.00000   0.29493   0.00000  -0.00052
 295   37652.4    265.6     -0.00010  -0.00037  -0.00003  -0.29192
 296   37653.0    265.6     -0.00003  -0.00078  -0.00001  -0.04631
 297   37677.3    265.4     -0.00048  -0.00000   0.37200  -0.00004
 298   37720.7    265.1      0.00001   0.00002  -0.00010   0.00000
 299   37722.1    265.1     -0.00007  -0.00001   0.00062  -0.00005
 300   37772.0    264.7     -0.00002   0.06889   0.00000  -0.00017
 301   37773.4    264.7      0.00001  -0.00021  -0.00006  -0.06502
 302   37800.9    264.5      0.00025  -0.00724  -0.00000   0.00010
 303   37853.7    264.2     -0.00009   0.24371  -0.00000  -0.00119
 304   37854.5    264.2     -0.00010   0.00122  -0.00000   0.24913
 305   37867.7    264.1     -0.00000  -0.00000  -0.00000  -0.00121
 306   37886.6    263.9     -0.00000  -0.00007   0.00000   0.00000
 307   37932.7    263.6     -0.00000   0.00000   0.00069  -0.00000
 308   37933.5    263.6      0.00004   0.00007   0.00000   0.00001
 309   38070.2    262.7      0.00055   0.82340   0.00000  -0.00510
 310   38070.9    262.7      0.00072  -0.00509  -0.00003  -0.82351
 311   38167.5    262.0     -0.00094   0.00003   0.00698  -0.00014
 312   38168.3    262.0     -0.00056  -0.00010  -0.00006   0.00001
 313   38200.5    261.8      0.00000  -0.00004   0.13202   0.00011
 314   38214.8    261.7      0.00075  -0.39162  -0.00001  -0.00043
 315   38216.1    261.7      0.00002  -0.00045  -0.00005   0.38421
 316   38241.5    261.5      0.00010   0.00195   0.00001  -0.00002
 317   38333.3    260.9      0.00034   0.15861  -0.00000  -0.00134
 318   38334.0    260.9      0.00011  -0.00131   0.00000  -0.16596
 319   38423.7    260.3     -0.00005  -0.00186  -0.00000   0.00001
 320   38492.1    259.8      0.00081  -0.00000  -0.00036   0.00011
 321   38492.4    259.8     -0.00032   0.00014  -0.00004  -0.00000
 322   38529.5    259.5      0.00049  -0.16538   0.00000  -0.00000
 323   38530.3    259.5     -0.00040   0.00000  -0.00003   0.16379
 324   38535.0    259.5      0.00004   0.00032  -0.00001  -0.00005
 325   38537.3    259.5     -0.00131   0.00002   0.00028   0.00010
 326   38537.5    259.5     -0.00003  -0.00009  -0.00004  -0.00000
 327   38591.8    259.1     -0.00000  -0.00000  -0.00002  -0.00023
 328   38784.9    257.8     -0.00000  -0.00001   0.00005  -0.00026
 329   38838.6    257.5     -0.00029   0.00062  -0.00000   0.00001
 330   38894.3    257.1     -0.00013   0.00006   0.00002  -0.00000
 331   38896.1    257.1     -0.00008   0.00000  -0.00274  -0.00002
 332   39039.4    256.2      0.21662  -0.00056  -0.00123   0.00000
 333   39043.3    256.1     -0.21898   0.00001   2.35375  -0.00003
 334   39120.0    255.6      0.00000   0.00004  -0.00002  -0.00000
 335   39202.7    255.1     -0.00051  -0.78074  -0.00000   0.00167
 336   39207.0    255.1     -0.00005   0.00166   0.00010   0.76808
 337   39229.9    254.9     -0.00044  -0.00058   0.00004  -0.00002
 338   39230.7    254.9      0.00073   0.00003  -0.00010  -0.00066
 339   39286.9    254.5      0.00265   0.00442  -0.00002  -0.00005
 340   39446.7    253.5     -0.00008   0.00001   0.18198   0.00003
 341   39494.7    253.2     -0.00008   1.09560   0.00000  -0.00215
 342   39497.3    253.2      0.00063  -0.00210  -0.00001  -1.09905
 343   39506.9    253.1      0.00001  -0.00051   0.00000  -0.00009
 344   39631.4    252.3     -0.00036   1.25049  -0.00000  -0.00355
 345   39634.5    252.3      0.00062  -0.00357   0.00003  -1.24012
 346   39672.3    252.1     -0.00015  -0.00010   0.00002  -0.00003
 347   39673.3    252.1     -0.00005   0.00001  -0.00043   0.00013
 348   39783.4    251.4     -0.00019   0.58137  -0.00000  -0.00128
 349   39786.6    251.3     -0.00054  -0.00128  -0.00004  -0.56957
 350   39832.7    251.1      0.00016   0.00001   0.08513   0.00009
 351   39877.7    250.8     -0.00001  -0.00008   0.00000   0.00001
 352   39896.6    250.6      0.00079  -0.00009  -0.00001   0.00002
 353   39896.8    250.6      0.00076   0.00002   0.00164  -0.00005
 354   39914.1    250.5      0.00000  -0.00010   0.00001   0.00196
 355   39944.3    250.3     -0.00050  -0.00153  -0.00003  -0.76533
 356   39949.0    250.3     -0.00052  -0.73776   0.00000   0.00148
 357   39975.8    250.2      0.00065  -0.00207  -0.00000  -0.00008
 358   40032.7    249.8     -0.00077  -0.00002   0.05024  -0.00004
 359   40142.7    249.1      0.00095  -0.00001  -0.17909   0.00005
 360   40189.9    248.8     -0.00096  -0.00125  -0.00001  -0.00001
 361   40192.9    248.8     -0.00031   0.00000   0.00277   0.00009
 362   40192.9    248.8      0.00010  -0.00004   0.00006   0.00000
 363   40193.9    248.8     -0.00010   0.00001  -0.00005   0.00113
 364   40226.0    248.6      0.00174  -0.00309   0.00000  -0.00003
 365   40263.3    248.4     -0.00009  -0.12710  -0.00000   0.00034
 366   40264.1    248.4      0.00006   0.00039  -0.00000   0.12578
 367   40279.2    248.3      0.00000  -0.00016  -0.00000   0.00001
 368   40284.6    248.2      0.00025   0.00232   0.00000   0.00004
 369   40346.3    247.9     -0.00001   0.00010   0.00001   0.01468
 370   40359.4    247.8     -0.00003   0.00005  -0.00000  -0.00001
 371   40359.6    247.8     -0.00005  -0.00002  -0.00056  -0.00007
 372   40397.0    247.5      0.00018   0.62012   0.00001  -0.00034
 373   40397.2    247.5     -0.00003   0.00034  -0.00008   0.61983
 374   40482.5    247.0     -0.00161   0.00093   0.00002  -0.14964
 375   40482.7    247.0     -0.00072  -0.15085   0.00001  -0.00098
 376   40488.4    247.0     -0.00111  -0.00001  -0.00127  -0.00048
 377   40488.6    247.0      0.00322  -0.00058   0.00003   0.00005
 378   40507.8    246.9      0.00078  -0.28338  -0.00000  -0.00243
 379   40507.8    246.9     -0.00062   0.00243  -0.00004  -0.28315
 380   40546.7    246.6      0.00006  -0.01585   0.00000  -0.00001
 381   40569.5    246.5      0.00035  -0.45031   0.00001   0.00114
 382   40571.2    246.5     -0.00008   0.00111   0.00002   0.45556
 383   40613.6    246.2      0.00000   0.00013   0.00001  -0.00219
 384   40624.0    246.2      0.00001   0.00011  -0.00000  -0.00003
 385   40777.0    245.2      0.00003   0.04435   0.00000   0.00006
 386   40777.2    245.2     -0.00002   0.00006  -0.00001  -0.04276
 387   40874.0    244.7     -0.00000   0.00002  -0.00001  -0.00000
 388   40874.5    244.7      0.00000   0.00000   0.00092  -0.00001
 389   40917.1    244.4      0.00005   0.00003   0.00636   0.00014
 390   40948.0    244.2     -0.00000  -0.00001   0.00000  -0.00236
 391   41039.5    243.7      0.00108  -0.00003   0.00260   0.00000
 392   41039.8    243.7      0.00063  -0.00005  -0.00002  -0.00002
 393   41056.7    243.6     -0.00003  -0.00087   0.00001   0.00017
 394   41059.4    243.5      0.00086   0.00046   0.00001  -0.08187
 395   41063.8    243.5     -0.00134   0.25974   0.00000   0.00456
 396   41065.3    243.5     -0.00154  -0.01097   0.00009   0.52243
 397   41065.6    243.5      0.00127   0.45990   0.00002   0.00994
 398   41227.0    242.6     -0.00100   0.00001  -0.64443  -0.00010
 399   41238.2    242.5      0.00008  -0.41371   0.00000   0.00406
 400   41238.6    242.5     -0.00006  -0.00410   0.00029  -0.41216

Total run time:    20051.055 sec

           *** ORCA-CIS/TD-DFT FINISHED WITHOUT ERROR ***

Maximum memory used throughout the entire CIS-calculation: 2565.5 MB

-----------------------
CIS/TD-DFT TOTAL ENERGY
-----------------------

    E(SCF)  =  -4341.072349575 Eh
    DE(CIS) =      0.050347313 Eh (Root  1)
    ----------------------------- ---------
    E(tot)  =  -4341.022002262 Eh


-------------------------   --------------------
FINAL SINGLE POINT ENERGY     -4341.022002261516
-------------------------   --------------------


                            ***************************************
                            *     ORCA property calculations      *
                            ***************************************

                                    ---------------------
                                    Active property flags
                                    ---------------------
   (+) Dipole Moment


------------------------------------------------------------------------------
                       ORCA ELECTRIC PROPERTIES CALCULATION
------------------------------------------------------------------------------

Dipole Moment Calculation                       ... on
Quadrupole Moment Calculation                   ... off
Polarizability Calculation                      ... off
GBWName                                         ... ABS_c114-D3h_a.gbw
Electron density                                ... ABS_c114-D3h_a.scfp
The origin for moment calculation is the CENTER OF MASS  = ( 0.000000,  0.000000  0.000000)

-------------
DIPOLE MOMENT
-------------
                                X             Y             Z
Electronic contribution:     -0.00000      -0.00001       0.00246
Nuclear contribution   :      0.00000       0.00000       0.00000
                        -----------------------------------------
Total Dipole Moment    :     -0.00000      -0.00001       0.00246
                        -----------------------------------------
Magnitude (a.u.)       :      0.00246
Magnitude (Debye)      :      0.00626



--------------------
Rotational spectrum 
--------------------
 
Rotational constants in cm-1:     0.001167     0.000601     0.000601 
Rotational constants in MHz :    34.991787    18.020342    18.018372 

 Dipole components along the rotational axes: 
x,y,z [a.u.] :     0.000011    -0.002462    -0.000008 
x,y,z [Debye]:     0.000029    -0.006257    -0.000019 

 

Timings for individual modules:

Sum of individual times         ...    20520.532 sec (= 342.009 min)
GTO integral calculation        ...       14.705 sec (=   0.245 min)   0.1 %
SCF iterations                  ...      441.114 sec (=   7.352 min)   2.1 %
CIS module                      ...    20064.713 sec (= 334.412 min)  97.8 %
                             ****ORCA TERMINATED NORMALLY****
TOTAL RUN TIME: 0 days 5 hours 42 minutes 45 seconds 539 msec
