
                                 *****************
                                 * O   R   C   A *
                                 *****************

                                            #,                                       
                                            ###                                      
                                            ####                                     
                                            #####                                    
                                            ######                                   
                                           ########,                                 
                                     ,,################,,,,,                         
                               ,,#################################,,                 
                          ,,##########################################,,             
                       ,#########################################, ''#####,          
                    ,#############################################,,   '####,        
                  ,##################################################,,,,####,       
                ,###########''''           ''''###############################       
              ,#####''   ,,,,##########,,,,          '''####'''          '####       
            ,##' ,,,,###########################,,,                        '##       
           ' ,,###''''                  '''############,,,                           
         ,,##''                                '''############,,,,        ,,,,,,###''
      ,#''                                            '''#######################'''  
     '                                                          ''''####''''         
             ,#######,   #######,   ,#######,      ##                                
            ,#'     '#,  ##    ##  ,#'     '#,    #''#        ######   ,####,        
            ##       ##  ##   ,#'  ##            #'  '#       #        #'  '#        
            ##       ##  #######   ##           ,######,      #####,   #    #        
            '#,     ,#'  ##    ##  '#,     ,#' ,#      #,         ##   #,  ,#        
             '#######'   ##     ##  '#######'  #'      '#     #####' # '####'        



                  #######################################################
                  #                        -***-                        #
                  #          Department of theory and spectroscopy      #
                  #    Directorship and core code : Frank Neese         #
                  #        Max Planck Institute fuer Kohlenforschung    #
                  #                Kaiser Wilhelm Platz 1               #
                  #                 D-45470 Muelheim/Ruhr               #
                  #                      Germany                        #
                  #                                                     #
                  #                  All rights reserved                #
                  #                        -***-                        #
                  #######################################################


                         Program Version 5.0.2 -  RELEASE  -


 With contributions from (in alphabetic order):
   Daniel Aravena         : Magnetic Suceptibility
   Michael Atanasov       : Ab Initio Ligand Field Theory (pilot matlab implementation)
   Alexander A. Auer      : GIAO ZORA, VPT2 properties, NMR spectrum
   Ute Becker             : Parallelization
   Giovanni Bistoni       : ED, misc. LED, open-shell LED, HFLD
   Martin Brehm           : Molecular dynamics
   Dmytro Bykov           : SCF Hessian
   Vijay G. Chilkuri      : MRCI spin determinant printing, contributions to CSF-ICE
   Dipayan Datta          : RHF DLPNO-CCSD density
   Achintya Kumar Dutta   : EOM-CC, STEOM-CC
   Dmitry Ganyushin       : Spin-Orbit,Spin-Spin,Magnetic field MRCI
   Miquel Garcia          : C-PCM and meta-GGA Hessian, CC/C-PCM, Gaussian charge scheme
   Yang Guo               : DLPNO-NEVPT2, F12-NEVPT2, CIM, IAO-localization
   Andreas Hansen         : Spin unrestricted coupled pair/coupled cluster methods
   Benjamin Helmich-Paris : MC-RPA, TRAH-SCF, COSX integrals
   Lee Huntington         : MR-EOM, pCC
   Robert Izsak           : Overlap fitted RIJCOSX, COSX-SCS-MP3, EOM
   Marcus Kettner         : VPT2
   Christian Kollmar      : KDIIS, OOCD, Brueckner-CCSD(T), CCSD density, CASPT2, CASPT2-K
   Simone Kossmann        : Meta GGA functionals, TD-DFT gradient, OOMP2, MP2 Hessian
   Martin Krupicka        : Initial AUTO-CI
   Lucas Lang             : DCDCAS
   Marvin Lechner         : AUTO-CI (C++ implementation), FIC-MRCC
   Dagmar Lenk            : GEPOL surface, SMD
   Dimitrios Liakos       : Extrapolation schemes; Compound Job, initial MDCI parallelization
   Dimitrios Manganas     : Further ROCIS development; embedding schemes
   Dimitrios Pantazis     : SARC Basis sets
   Anastasios Papadopoulos: AUTO-CI, single reference methods and gradients
   Taras Petrenko         : DFT Hessian,TD-DFT gradient, ASA, ECA, R-Raman, ABS, FL, XAS/XES, NRVS
   Peter Pinski           : DLPNO-MP2, DLPNO-MP2 Gradient
   Christoph Reimann      : Effective Core Potentials
   Marius Retegan         : Local ZFS, SOC
   Christoph Riplinger    : Optimizer, TS searches, QM/MM, DLPNO-CCSD(T), (RO)-DLPNO pert. Triples
   Tobias Risthaus        : Range-separated hybrids, TD-DFT gradient, RPA, STAB
   Michael Roemelt        : Original ROCIS implementation
   Masaaki Saitow         : Open-shell DLPNO-CCSD energy and density
   Barbara Sandhoefer     : DKH picture change effects
   Avijit Sen             : IP-ROCIS
   Kantharuban Sivalingam : CASSCF convergence, NEVPT2, FIC-MRCI
   Bernardo de Souza      : ESD, SOC TD-DFT
   Georgi Stoychev        : AutoAux, RI-MP2 NMR, DLPNO-MP2 response
   Willem Van den Heuvel  : Paramagnetic NMR
   Boris Wezisla          : Elementary symmetry handling
   Frank Wennmohs         : Technical directorship


 We gratefully acknowledge several colleagues who have allowed us to
 interface, adapt or use parts of their codes:
   Stefan Grimme, W. Hujo, H. Kruse, P. Pracht,  : VdW corrections, initial TS optimization,
                  C. Bannwarth, S. Ehlert          DFT functionals, gCP, sTDA/sTD-DF
   Ed Valeev, F. Pavosevic, A. Kumar             : LibInt (2-el integral package), F12 methods
   Garnet Chan, S. Sharma, J. Yang, R. Olivares  : DMRG
   Ulf Ekstrom                                   : XCFun DFT Library
   Mihaly Kallay                                 : mrcc  (arbitrary order and MRCC methods)
   Jiri Pittner, Ondrej Demel                    : Mk-CCSD
   Frank Weinhold                                : gennbo (NPA and NBO analysis)
   Christopher J. Cramer and Donald G. Truhlar   : smd solvation model
   Lars Goerigk                                  : TD-DFT with DH, B97 family of functionals
   V. Asgeirsson, H. Jonsson                     : NEB implementation
   FAccTs GmbH                                   : IRC, NEB, NEB-TS, DLPNO-Multilevel, CI-OPT
                                                   MM, QMMM, 2- and 3-layer-ONIOM, Crystal-QMMM,
                                                   LR-CPCM, SF, NACMEs, symmetry and pop. for TD-DFT,
                                                   nearIR, NL-DFT gradient (VV10), updates on ESD,
                                                   ML-optimized integration grids
   S Lehtola, MJT Oliveira, MAL Marques          : LibXC Library
   Liviu Ungur et al                             : ANISO software


 Your calculation uses the libint2 library for the computation of 2-el integrals
 For citations please refer to: http://libint.valeyev.net

 Your ORCA version has been built with support for libXC version: 5.1.0
 For citations please refer to: https://tddft.org/programs/libxc/

 This ORCA versions uses:
   CBLAS   interface :  Fast vector & matrix operations
   LAPACKE interface :  Fast linear algebra routines
   SCALAPACK package :  Parallel linear algebra routines
   Shared memory     :  Shared parallel matrices
   BLAS/LAPACK       :  OpenBLAS 0.3.15  USE64BITINT DYNAMIC_ARCH NO_AFFINITY Zen SINGLE_THREADED
        Core in use  :  Zen
   Copyright (c) 2011-2014, The OpenBLAS Project




***************************************
The coordinates will be read from file: OPT_c60-Ih.xyz
***************************************


================================================================================

----- Orbital basis set information -----
Your calculation utilizes the basis: def2-SVP
   F. Weigend and R. Ahlrichs, Phys. Chem. Chem. Phys. 7, 3297 (2005).

----- AuxJ basis set information -----
Your calculation utilizes the auxiliary basis: def2/J
   F. Weigend, Phys. Chem. Chem. Phys. 8, 1057 (2006).

================================================================================
                                        WARNINGS
                       Please study these warnings very carefully!
================================================================================

INFO   : Checking CIS options ...

WARNING: CIS/ROCIS methods need fully converged wavefunctions
  ===> : Setting SCFConvForced true
         You can overwrite this default with %scf ConvForced false 


INFO   : the flag for use of the SHARK integral package has been found!

================================================================================
                                       INPUT FILE
================================================================================
NAME = UV_c60-Ih.inp
|  1> ! B3LYP/G def2-SVP TightSCF #UseSym
|  2> # DFT functional:   B3LYP/G
|  3> # Basis:            def2-SVP
|  4> %maxcore 3000
|  5> %pal nprocs 64
|  6> end
|  7> %base "UV_c60-Ih"
|  8> %cpcm
|  9>         epsilon 2.02
| 10>         refrac  1.4266
| 11> end
| 12> %tddft
| 13>         TDA     True
| 14>         maxdim  10   # Davidson expansion space = MaxDim * nroots
| 15>                      # Use MaxDim 5-10 for favorable convergence
| 16>         nroots  400  # Setting the number of roots (transitions)
| 17>                      # to be calculated
| 18> end
| 19> *xyzfile 0 1 OPT_c60-Ih.xyz
| 20> 
| 21>                          ****END OF INPUT****
================================================================================

                       ****************************
                       * Single Point Calculation *
                       ****************************

---------------------------------
CARTESIAN COORDINATES (ANGSTROEM)
---------------------------------
  C      2.308178   -0.727438    2.604226
  C      3.036039   -1.176978    1.426946
  C      1.176978   -1.426946    3.036039
  C      2.604226   -2.308178    0.727438
  C      2.604226   -2.308178   -0.727437
  C      3.484958   -0.000000    0.699243
  C      3.484958   -0.000000   -0.699243
  C      3.036038   -1.176978   -1.426946
  C      0.000000    0.699243    3.484959
  C      1.176978    1.426946    3.036039
  C      0.000000   -0.699243    3.484959
  C      2.308178    0.727438    2.604226
  C      3.036038    1.176978    1.426946
  C      0.727438    2.604226    2.308178
  C      1.426946    3.036038    1.176978
  C      2.604226    2.308178    0.727438
  C     -2.308178   -0.727438    2.604226
  C     -2.308178    0.727437    2.604226
  C     -1.176978   -1.426946    3.036039
  C     -1.176978    1.426946    3.036039
  C     -0.727438    2.604226    2.308178
  C     -3.036038    1.176978    1.426946
  C     -2.604226    2.308178    0.727437
  C     -1.426946    3.036038    1.176978
  C     -1.426946   -3.036039    1.176978
  C     -2.604226   -2.308178    0.727437
  C     -0.727438   -2.604226    2.308178
  C     -3.036038   -1.176978    1.426946
  C     -3.484958   -0.000000    0.699243
  C     -2.604226   -2.308178   -0.727437
  C     -3.036038   -1.176978   -1.426946
  C     -3.484958    0.000000   -0.699243
  C      1.426946   -3.036039    1.176978
  C      0.699243   -3.484958    0.000000
  C      0.727438   -2.604226    2.308178
  C     -0.699243   -3.484958    0.000000
  C     -1.426946   -3.036039   -1.176978
  C      1.426946   -3.036038   -1.176977
  C      0.727438   -2.604226   -2.308177
  C     -0.727438   -2.604226   -2.308177
  C     -2.308178    0.727438   -2.604227
  C     -2.308178   -0.727437   -2.604226
  C     -1.176978   -1.426946   -3.036039
  C     -1.176978    1.426946   -3.036039
  C     -1.426946    3.036039   -1.176978
  C     -2.604226    2.308178   -0.727438
  C     -3.036038    1.176978   -1.426946
  C     -0.727438    2.604226   -2.308178
  C      1.426946    3.036039   -1.176978
  C      0.699243    3.484958   -0.000000
  C     -0.699243    3.484958   -0.000000
  C      0.727438    2.604226   -2.308178
  C      2.308178    0.727437   -2.604226
  C      3.036038    1.176978   -1.426946
  C      2.604226    2.308178   -0.727437
  C      1.176978    1.426946   -3.036039
  C     -0.000000   -0.699243   -3.484959
  C      1.176978   -1.426946   -3.036039
  C      2.308178   -0.727437   -2.604226
  C     -0.000000    0.699243   -3.484959

----------------------------
CARTESIAN COORDINATES (A.U.)
----------------------------
  NO LB      ZA    FRAG     MASS         X           Y           Z
   0 C     6.0000    0    12.011    4.361825   -1.374658    4.921275
   1 C     6.0000    0    12.011    5.737281   -2.224166    2.696537
   2 C     6.0000    0    12.011    2.224166   -2.696537    5.737282
   3 C     6.0000    0    12.011    4.921274   -4.361824    1.374658
   4 C     6.0000    0    12.011    4.921274   -4.361824   -1.374657
   5 C     6.0000    0    12.011    6.585616   -0.000000    1.321378
   6 C     6.0000    0    12.011    6.585616   -0.000000   -1.321377
   7 C     6.0000    0    12.011    5.737280   -2.224165   -2.696536
   8 C     6.0000    0    12.011    0.000000    1.321377    6.585617
   9 C     6.0000    0    12.011    2.224166    2.696537    5.737282
  10 C     6.0000    0    12.011    0.000000   -1.321378    6.585617
  11 C     6.0000    0    12.011    4.361824    1.374658    4.921275
  12 C     6.0000    0    12.011    5.737281    2.224165    2.696537
  13 C     6.0000    0    12.011    1.374658    4.921274    4.361823
  14 C     6.0000    0    12.011    2.696537    5.737281    2.224165
  15 C     6.0000    0    12.011    4.921274    4.361824    1.374658
  16 C     6.0000    0    12.011   -4.361824   -1.374658    4.921275
  17 C     6.0000    0    12.011   -4.361824    1.374658    4.921275
  18 C     6.0000    0    12.011   -2.224166   -2.696537    5.737282
  19 C     6.0000    0    12.011   -2.224166    2.696537    5.737282
  20 C     6.0000    0    12.011   -1.374658    4.921274    4.361823
  21 C     6.0000    0    12.011   -5.737281    2.224166    2.696537
  22 C     6.0000    0    12.011   -4.921274    4.361824    1.374657
  23 C     6.0000    0    12.011   -2.696537    5.737281    2.224165
  24 C     6.0000    0    12.011   -2.696537   -5.737281    2.224165
  25 C     6.0000    0    12.011   -4.921274   -4.361824    1.374658
  26 C     6.0000    0    12.011   -1.374658   -4.921274    4.361823
  27 C     6.0000    0    12.011   -5.737281   -2.224166    2.696537
  28 C     6.0000    0    12.011   -6.585616   -0.000000    1.321377
  29 C     6.0000    0    12.011   -4.921274   -4.361824   -1.374657
  30 C     6.0000    0    12.011   -5.737280   -2.224165   -2.696537
  31 C     6.0000    0    12.011   -6.585616    0.000000   -1.321377
  32 C     6.0000    0    12.011    2.696537   -5.737281    2.224166
  33 C     6.0000    0    12.011    1.321377   -6.585616    0.000000
  34 C     6.0000    0    12.011    1.374658   -4.921274    4.361823
  35 C     6.0000    0    12.011   -1.321377   -6.585617    0.000000
  36 C     6.0000    0    12.011   -2.696537   -5.737282   -2.224165
  37 C     6.0000    0    12.011    2.696537   -5.737281   -2.224165
  38 C     6.0000    0    12.011    1.374658   -4.921274   -4.361823
  39 C     6.0000    0    12.011   -1.374658   -4.921274   -4.361823
  40 C     6.0000    0    12.011   -4.361824    1.374658   -4.921275
  41 C     6.0000    0    12.011   -4.361824   -1.374657   -4.921275
  42 C     6.0000    0    12.011   -2.224166   -2.696537   -5.737282
  43 C     6.0000    0    12.011   -2.224166    2.696538   -5.737283
  44 C     6.0000    0    12.011   -2.696537    5.737282   -2.224166
  45 C     6.0000    0    12.011   -4.921274    4.361824   -1.374658
  46 C     6.0000    0    12.011   -5.737281    2.224166   -2.696537
  47 C     6.0000    0    12.011   -1.374658    4.921275   -4.361824
  48 C     6.0000    0    12.011    2.696537    5.737281   -2.224165
  49 C     6.0000    0    12.011    1.321377    6.585616   -0.000000
  50 C     6.0000    0    12.011   -1.321377    6.585616   -0.000000
  51 C     6.0000    0    12.011    1.374658    4.921275   -4.361824
  52 C     6.0000    0    12.011    4.361824    1.374658   -4.921275
  53 C     6.0000    0    12.011    5.737280    2.224165   -2.696537
  54 C     6.0000    0    12.011    4.921274    4.361823   -1.374657
  55 C     6.0000    0    12.011    2.224166    2.696537   -5.737282
  56 C     6.0000    0    12.011   -0.000000   -1.321377   -6.585617
  57 C     6.0000    0    12.011    2.224166   -2.696537   -5.737282
  58 C     6.0000    0    12.011    4.361824   -1.374658   -4.921274
  59 C     6.0000    0    12.011   -0.000000    1.321378   -6.585618

--------------------------------
INTERNAL COORDINATES (ANGSTROEM)
--------------------------------
 C      0   0   0     0.000000000000     0.00000000     0.00000000
 C      1   0   0     1.455285753731     0.00000000     0.00000000
 C      1   2   0     1.398351676028   119.99227032     0.00000000
 C      2   1   3     1.398351614887   120.00772523     0.00000000
 C      4   2   1     1.454874888045   120.01573274   138.17895553
 C      2   1   3     1.454770455799   108.00400404   142.59557088
 C      6   2   1     1.398485587224   120.01444835   217.38184017
 C      5   4   2     1.398351565800   120.01573352     0.00000000
 C      3   1   2     2.471332592482    90.62937410   221.81939202
 C      9   3   1     1.454770755930    89.36934592     0.00000000
 C      9   3   1     1.398485600280    30.64510697   179.98648880
 C     10   9   3     1.398351712091   119.96980793     0.00000000
 C      6   2   1     1.454770442414   108.00585851     0.05625417
 C     10   9   3     1.455286011814   108.00399205   142.61812960
 C     14  10   9     1.398351553387   119.99228710   217.40441195
 C     13   6   2     1.398351598139   119.96980910   217.34117935
 C     11   9   3     2.470661758530    90.65386392   221.76308620
 C     17  11   9     1.454875142489    89.34613710     0.00000000
 C     17  11   9     1.398351651126    30.66960151   180.01351913
 C     18  17  11     1.398351676568   120.01573604     0.00000000
 C     14  10   9     1.454875103118   107.99306341     0.03478985
 C     18  17  11     1.455285878101   107.99305258   142.61203095
 C     22  18  17     1.398351671101   120.00773356   217.37940565
 C     21  14  10     1.398351596636   120.01573531   217.37996294
 C     19  17  11     2.471390533303    90.66391916   221.83188272
 C     25  19  17     1.455285638827    89.34379891     0.00000000
 C     25  19  17     1.398351536758    30.66392030   179.99152820
 C     26  25  19     1.398351614424   119.99227761     0.00000000
 C     22  18  17     1.454770389336   108.00400042   359.96523582
 C     26  25  19     1.454874865540   107.99304819   142.62551021
 C     30  26  25     1.398351610114   120.01573335   217.38001034
 C     29  22  18     1.398485608555   120.01444828   217.38182476
 C      4   2   1     1.455285670228   119.99228357     0.00000000
 C     33   4   2     1.454770422022   108.00401397   142.59557147
 C     33   4   2     1.398351493420   120.00771948     0.00000000
 C     34  33   4     1.398485409497   120.01446629   217.38183877
 C     36  34  33     1.454770429035   120.01446099   138.24457245
 C     34  33   4     1.454770343794   108.00584434     0.05627644
 C     38  34  33     1.398351552627   119.96980609   217.34117444
 C     37  36  34     1.398351545739   119.96980436     0.00000000
 C     31  30  26     2.354265976489   144.00402008   100.79791171
 C     41  31  30     1.454875104558    36.00934647    63.44234604
 C     42  41  31     1.398351613201   120.01574122   217.38001414
 C     41  31  30     1.398351730236   144.01529469   359.97652527
 C     24  21  14     2.353955412821   143.99371082    37.34710329
 C     23  22  18     1.454875023294   120.01574269   138.17896694
 C     46  23  22     1.398351563737   120.01572951     0.00000000
 C     45  24  21     1.398351578269   143.99371548     0.00000000
 C     15  14  10     2.353955317959   143.99370999   100.84150770
 C     49  15  14     1.454770440309    35.99707765    63.35779146
 C     50  49  15     1.398485387788   120.01445826   217.32556606
 C     49  15  14     1.398351567905   143.99371876     0.00000000
 C      8   5   4     2.354265759480   144.00401926   259.20209072
 C      7   6   2     1.454770391474   120.01445933   138.24455277
 C     54   7   6     1.398351515242   119.96980847     0.00000000
 C     53   8   5     1.398351631037   144.01529742     0.02347365
 C     43  42  41     1.454770770500   119.96980229     0.00000000
 C     57  43  42     1.454770812202   108.00584812   142.65881357
 C     58  57  43     1.398351586224   119.96980862   217.34118452
 C     57  43  42     1.398485646242   120.01445807     0.00000000

---------------------------
INTERNAL COORDINATES (A.U.)
---------------------------
 C      0   0   0     0.000000000000     0.00000000     0.00000000
 C      1   0   0     2.750091521149     0.00000000     0.00000000
 C      1   2   0     2.642501706603   119.99227032     0.00000000
 C      2   1   3     2.642501591062   120.00772523     0.00000000
 C      4   2   1     2.749315097524   120.01573274   138.17895553
 C      2   1   3     2.749117749181   108.00400404   142.59557088
 C      6   2   1     2.642754762089   120.01444835   217.38184017
 C      5   4   2     2.642501498301   120.01573352     0.00000000
 C      3   1   2     4.670141785624    90.62937410   221.81939202
 C      9   3   1     2.749118316345    89.36934592     0.00000000
 C      9   3   1     2.642754786762    30.64510697   179.98648880
 C     10   9   3     2.642501774751   119.96980793     0.00000000
 C      6   2   1     2.749117723885   108.00585851     0.05625417
 C     10   9   3     2.750092008855   108.00399205   142.61812960
 C     14  10   9     2.642501474845   119.99228710   217.40441195
 C     13   6   2     2.642501559413   119.96980910   217.34117935
 C     11   9   3     4.668874093173    90.65386392   221.76308620
 C     17  11   9     2.749315578354    89.34613710     0.00000000
 C     17  11   9     2.642501659545    30.66960151   180.01351913
 C     18  17  11     2.642501707623   120.01573604     0.00000000
 C     14  10   9     2.749315503953   107.99306341     0.03478985
 C     18  17  11     2.750091756174   107.99305258   142.61203095
 C     22  18  17     2.642501697293   120.00773356   217.37940565
 C     21  14  10     2.642501556573   120.01573531   217.37996294
 C     19  17  11     4.670251277909    90.66391916   221.83188272
 C     25  19  17     2.750091304012    89.34379891     0.00000000
 C     25  19  17     2.642501443421    30.66392030   179.99152820
 C     26  25  19     2.642501590189   119.99227761     0.00000000
 C     22  18  17     2.749117623582   108.00400042   359.96523582
 C     26  25  19     2.749315054996   107.99304819   142.62551021
 C     30  26  25     2.642501582043   120.01573335   217.38001034
 C     29  22  18     2.642754802400   120.01444828   217.38182476
 C      4   2   1     2.750091363352   119.99228357     0.00000000
 C     33   4   2     2.749117685351   108.00401397   142.59557147
 C     33   4   2     2.642501361524   120.00771948     0.00000000
 C     34  33   4     2.642754426234   120.01446629   217.38183877
 C     36  34  33     2.749117698603   120.01446099   138.24457245
 C     34  33   4     2.749117537521   108.00584434     0.05627644
 C     38  34  33     2.642501473409   119.96980609   217.34117444
 C     37  36  34     2.642501460392   119.96980436     0.00000000
 C     31  30  26     4.448917941972   144.00402008   100.79791171
 C     41  31  30     2.749315506675    36.00934647    63.44234604
 C     42  41  31     2.642501587877   120.01574122   217.38001414
 C     41  31  30     2.642501809042   144.01529469   359.97652527
 C     24  21  14     4.448331061694   143.99371082    37.34710329
 C     23  22  18     2.749315353108   120.01574269   138.17896694
 C     46  23  22     2.642501494404   120.01572951     0.00000000
 C     45  24  21     2.642501521865   143.99371548     0.00000000
 C     15  14  10     4.448330882430   143.99370999   100.84150770
 C     49  15  14     2.749117719909    35.99707765    63.35779146
 C     50  49  15     2.642754385210   120.01445826   217.32556606
 C     49  15  14     2.642501502280   143.99371876     0.00000000
 C      8   5   4     4.448917531885   144.00401926   259.20209072
 C      7   6   2     2.749117627624   120.01445933   138.24455277
 C     54   7   6     2.642501402761   119.96980847     0.00000000
 C     53   8   5     2.642501621582   144.01529742     0.02347365
 C     43  42  41     2.749118343879   119.96980229     0.00000000
 C     57  43  42     2.749118422684   108.00584812   142.65881357
 C     58  57  43     2.642501536898   119.96980862   217.34118452
 C     57  43  42     2.642754873617   120.01445807     0.00000000

---------------------
BASIS SET INFORMATION
---------------------
There are 1 groups of distinct atoms

 Group   1 Type C   : 7s4p1d contracted to 3s2p1d pattern {511/31/1}

Atom   0C    basis set group =>   1
Atom   1C    basis set group =>   1
Atom   2C    basis set group =>   1
Atom   3C    basis set group =>   1
Atom   4C    basis set group =>   1
Atom   5C    basis set group =>   1
Atom   6C    basis set group =>   1
Atom   7C    basis set group =>   1
Atom   8C    basis set group =>   1
Atom   9C    basis set group =>   1
Atom  10C    basis set group =>   1
Atom  11C    basis set group =>   1
Atom  12C    basis set group =>   1
Atom  13C    basis set group =>   1
Atom  14C    basis set group =>   1
Atom  15C    basis set group =>   1
Atom  16C    basis set group =>   1
Atom  17C    basis set group =>   1
Atom  18C    basis set group =>   1
Atom  19C    basis set group =>   1
Atom  20C    basis set group =>   1
Atom  21C    basis set group =>   1
Atom  22C    basis set group =>   1
Atom  23C    basis set group =>   1
Atom  24C    basis set group =>   1
Atom  25C    basis set group =>   1
Atom  26C    basis set group =>   1
Atom  27C    basis set group =>   1
Atom  28C    basis set group =>   1
Atom  29C    basis set group =>   1
Atom  30C    basis set group =>   1
Atom  31C    basis set group =>   1
Atom  32C    basis set group =>   1
Atom  33C    basis set group =>   1
Atom  34C    basis set group =>   1
Atom  35C    basis set group =>   1
Atom  36C    basis set group =>   1
Atom  37C    basis set group =>   1
Atom  38C    basis set group =>   1
Atom  39C    basis set group =>   1
Atom  40C    basis set group =>   1
Atom  41C    basis set group =>   1
Atom  42C    basis set group =>   1
Atom  43C    basis set group =>   1
Atom  44C    basis set group =>   1
Atom  45C    basis set group =>   1
Atom  46C    basis set group =>   1
Atom  47C    basis set group =>   1
Atom  48C    basis set group =>   1
Atom  49C    basis set group =>   1
Atom  50C    basis set group =>   1
Atom  51C    basis set group =>   1
Atom  52C    basis set group =>   1
Atom  53C    basis set group =>   1
Atom  54C    basis set group =>   1
Atom  55C    basis set group =>   1
Atom  56C    basis set group =>   1
Atom  57C    basis set group =>   1
Atom  58C    basis set group =>   1
Atom  59C    basis set group =>   1
---------------------------------
AUXILIARY/J BASIS SET INFORMATION
---------------------------------
There are 1 groups of distinct atoms

 Group   1 Type C   : 12s5p4d2f1g contracted to 6s4p3d1f1g pattern {711111/2111/211/2/1}

Atom   0C    basis set group =>   1
Atom   1C    basis set group =>   1
Atom   2C    basis set group =>   1
Atom   3C    basis set group =>   1
Atom   4C    basis set group =>   1
Atom   5C    basis set group =>   1
Atom   6C    basis set group =>   1
Atom   7C    basis set group =>   1
Atom   8C    basis set group =>   1
Atom   9C    basis set group =>   1
Atom  10C    basis set group =>   1
Atom  11C    basis set group =>   1
Atom  12C    basis set group =>   1
Atom  13C    basis set group =>   1
Atom  14C    basis set group =>   1
Atom  15C    basis set group =>   1
Atom  16C    basis set group =>   1
Atom  17C    basis set group =>   1
Atom  18C    basis set group =>   1
Atom  19C    basis set group =>   1
Atom  20C    basis set group =>   1
Atom  21C    basis set group =>   1
Atom  22C    basis set group =>   1
Atom  23C    basis set group =>   1
Atom  24C    basis set group =>   1
Atom  25C    basis set group =>   1
Atom  26C    basis set group =>   1
Atom  27C    basis set group =>   1
Atom  28C    basis set group =>   1
Atom  29C    basis set group =>   1
Atom  30C    basis set group =>   1
Atom  31C    basis set group =>   1
Atom  32C    basis set group =>   1
Atom  33C    basis set group =>   1
Atom  34C    basis set group =>   1
Atom  35C    basis set group =>   1
Atom  36C    basis set group =>   1
Atom  37C    basis set group =>   1
Atom  38C    basis set group =>   1
Atom  39C    basis set group =>   1
Atom  40C    basis set group =>   1
Atom  41C    basis set group =>   1
Atom  42C    basis set group =>   1
Atom  43C    basis set group =>   1
Atom  44C    basis set group =>   1
Atom  45C    basis set group =>   1
Atom  46C    basis set group =>   1
Atom  47C    basis set group =>   1
Atom  48C    basis set group =>   1
Atom  49C    basis set group =>   1
Atom  50C    basis set group =>   1
Atom  51C    basis set group =>   1
Atom  52C    basis set group =>   1
Atom  53C    basis set group =>   1
Atom  54C    basis set group =>   1
Atom  55C    basis set group =>   1
Atom  56C    basis set group =>   1
Atom  57C    basis set group =>   1
Atom  58C    basis set group =>   1
Atom  59C    basis set group =>   1


           ************************************************************
           *        Program running with 64 parallel MPI-processes    *
           *              working on a common directory               *
           ************************************************************
------------------------------------------------------------------------------
                           ORCA GTO INTEGRAL CALCULATION
                           -- RI-GTO INTEGRALS CHOSEN --
------------------------------------------------------------------------------
------------------------------------------------------------------------------
                   ___                                                        
                  /   \      - P O W E R E D   B Y -                         
                 /     \                                                     
                 |  |  |   _    _      __       _____    __    __             
                 |  |  |  | |  | |    /  \     |  _  \  |  |  /  |          
                  \  \/   | |  | |   /    \    | | | |  |  | /  /          
                 / \  \   | |__| |  /  /\  \   | |_| |  |  |/  /          
                |  |  |   |  __  | /  /__\  \  |    /   |      \           
                |  |  |   | |  | | |   __   |  |    \   |  |\   \          
                \     /   | |  | | |  |  |  |  | |\  \  |  | \   \       
                 \___/    |_|  |_| |__|  |__|  |_| \__\ |__|  \__/        
                                                                              
                      - O R C A' S   B I G   F R I E N D -                    
                                      &                                       
                       - I N T E G R A L  F E E D E R -                       
                                                                              
 v1 FN, 2020, v2 2021                                                         
------------------------------------------------------------------------------


Reading SHARK input file UV_c60-Ih.SHARKINP.tmp ... ok
----------------------
SHARK INTEGRAL PACKAGE
----------------------

Number of atoms                             ...     60
Number of basis functions                   ...    840
Number of shells                            ...    360
Maximum angular momentum                    ...      2
Integral batch strategy                     ... SHARK/LIBINT Hybrid
RI-J (if used) integral strategy            ... SPLIT-RIJ (Revised 2003 algorithm where possible)
Printlevel                                  ...      1
Contraction scheme used                     ... SEGMENTED contraction
Coulomb Range Separation                    ... NOT USED
Exchange Range Separation                   ... NOT USED
Finite Nucleus Model                        ... NOT USED
Auxiliary Coulomb fitting basis             ... AVAILABLE
   # of basis functions in Aux-J            ...   2940
   # of shells in Aux-J                     ...    900
   Maximum angular momentum in Aux-J        ...      4
Auxiliary J/K fitting basis                 ... NOT available
Auxiliary Correlation fitting basis         ... NOT available
Auxiliary 'external' fitting basis          ... NOT available
Integral threshold                          ...     2.500000e-11
Primitive cut-off                           ...     2.500000e-12
Primitive pair pre-selection threshold      ...     2.500000e-12

Calculating pre-screening integrals         ... done (  0.0 sec) Dimension = 360
Organizing shell pair data                  ... done (  0.4 sec)
Shell pair information
Total number of shell pairs                 ...     64980
Shell pairs after pre-screening             ...     49280
Total number of primitive shell pairs       ...    260340
Primitive shell pairs kept                  ...    116958
          la=0 lb=0:  11850 shell pairs
          la=1 lb=0:  17952 shell pairs
          la=1 lb=1:   6576 shell pairs
          la=2 lb=0:   6600 shell pairs
          la=2 lb=1:   5424 shell pairs
          la=2 lb=2:    878 shell pairs

Calculating one electron integrals          ... done (  0.1 sec)
Calculating RI/J V-Matrix + Cholesky decomp.... done (  1.2 sec)
Calculating Nuclear repulsion               ... done (  0.0 sec) ENN=   8315.020420778625 Eh

SHARK setup successfully completed in   2.2 seconds

Maximum memory used throughout the entire GTOINT-calculation: 75.8 MB
[1661219062.894402] [nc30345:674277:0]          mpool.c:42   UCX  WARN  object 0xb90cf40 was not returned to mpool ucp_requests
[1661219062.894424] [nc30345:674277:0]          mpool.c:42   UCX  WARN  object 0xb90d100 was not returned to mpool ucp_requests
[1661219062.894428] [nc30345:674277:0]          mpool.c:42   UCX  WARN  object 0xb90d2c0 was not returned to mpool ucp_requests
[1661219062.894433] [nc30345:674277:0]          mpool.c:42   UCX  WARN  object 0xb90d480 was not returned to mpool ucp_requests
[1661219062.894435] [nc30345:674277:0]          mpool.c:42   UCX  WARN  object 0xb90d640 was not returned to mpool ucp_requests
[1661219062.894440] [nc30345:674277:0]          mpool.c:42   UCX  WARN  object 0xb90d800 was not returned to mpool ucp_requests
[1661219062.894443] [nc30345:674277:0]          mpool.c:42   UCX  WARN  object 0xb90d9c0 was not returned to mpool ucp_requests
[1661219062.894447] [nc30345:674277:0]          mpool.c:42   UCX  WARN  object 0xb90db80 was not returned to mpool ucp_requests
[1661219062.894451] [nc30345:674277:0]          mpool.c:42   UCX  WARN  object 0xb90dd40 was not returned to mpool ucp_requests
[1661219062.894454] [nc30345:674277:0]          mpool.c:42   UCX  WARN  object 0xb90df00 was not returned to mpool ucp_requests
[1661219062.894458] [nc30345:674277:0]          mpool.c:42   UCX  WARN  object 0xb90e0c0 was not returned to mpool ucp_requests
[1661219062.894462] [nc30345:674277:0]          mpool.c:42   UCX  WARN  object 0xb90e280 was not returned to mpool ucp_requests
[1661219062.894466] [nc30345:674277:0]          mpool.c:42   UCX  WARN  object 0xb90e440 was not returned to mpool ucp_requests
[1661219062.925442] [nc30345:674262:0]          mpool.c:42   UCX  WARN  object 0xc13e100 was not returned to mpool ucp_requests
[1661219062.925459] [nc30345:674262:0]          mpool.c:42   UCX  WARN  object 0xc13e2c0 was not returned to mpool ucp_requests
[1661219062.925464] [nc30345:674262:0]          mpool.c:42   UCX  WARN  object 0xc13e480 was not returned to mpool ucp_requests
[1661219062.925468] [nc30345:674262:0]          mpool.c:42   UCX  WARN  object 0xc13e640 was not returned to mpool ucp_requests
[1661219062.925471] [nc30345:674262:0]          mpool.c:42   UCX  WARN  object 0xc13e800 was not returned to mpool ucp_requests
[1661219062.925475] [nc30345:674262:0]          mpool.c:42   UCX  WARN  object 0xc13e9c0 was not returned to mpool ucp_requests
[1661219062.925479] [nc30345:674262:0]          mpool.c:42   UCX  WARN  object 0xc13eb80 was not returned to mpool ucp_requests
[1661219062.925483] [nc30345:674262:0]          mpool.c:42   UCX  WARN  object 0xc13ed40 was not returned to mpool ucp_requests
[1661219062.925487] [nc30345:674262:0]          mpool.c:42   UCX  WARN  object 0xc13ef00 was not returned to mpool ucp_requests
[1661219062.925490] [nc30345:674262:0]          mpool.c:42   UCX  WARN  object 0xc13f0c0 was not returned to mpool ucp_requests
[1661219062.925495] [nc30345:674262:0]          mpool.c:42   UCX  WARN  object 0xc13f280 was not returned to mpool ucp_requests
[1661219062.925499] [nc30345:674262:0]          mpool.c:42   UCX  WARN  object 0xc13f440 was not returned to mpool ucp_requests
[1661219062.928255] [nc30345:674383:0]          mpool.c:42   UCX  WARN  object 0xac66680 was not returned to mpool ucp_requests
[1661219062.928276] [nc30345:674383:0]          mpool.c:42   UCX  WARN  object 0xac66840 was not returned to mpool ucp_requests
[1661219062.928281] [nc30345:674383:0]          mpool.c:42   UCX  WARN  object 0xac66a00 was not returned to mpool ucp_requests
[1661219062.928285] [nc30345:674383:0]          mpool.c:42   UCX  WARN  object 0xac66bc0 was not returned to mpool ucp_requests
[1661219062.928289] [nc30345:674383:0]          mpool.c:42   UCX  WARN  object 0xac66d80 was not returned to mpool ucp_requests
[1661219062.928293] [nc30345:674383:0]          mpool.c:42   UCX  WARN  object 0xac66f40 was not returned to mpool ucp_requests
[1661219062.928296] [nc30345:674383:0]          mpool.c:42   UCX  WARN  object 0xac67100 was not returned to mpool ucp_requests
[1661219062.928300] [nc30345:674383:0]          mpool.c:42   UCX  WARN  object 0xac672c0 was not returned to mpool ucp_requests
[1661219062.928304] [nc30345:674383:0]          mpool.c:42   UCX  WARN  object 0xac67480 was not returned to mpool ucp_requests
[1661219062.928309] [nc30345:674383:0]          mpool.c:42   UCX  WARN  object 0xac67640 was not returned to mpool ucp_requests
[1661219062.928313] [nc30345:674383:0]          mpool.c:42   UCX  WARN  object 0xac67800 was not returned to mpool ucp_requests
[1661219062.990508] [nc30345:674404:0]          mpool.c:42   UCX  WARN  object 0xb9a6440 was not returned to mpool ucp_requests
[1661219062.990526] [nc30345:674404:0]          mpool.c:42   UCX  WARN  object 0xb9a6600 was not returned to mpool ucp_requests
[1661219062.990531] [nc30345:674404:0]          mpool.c:42   UCX  WARN  object 0xb9a67c0 was not returned to mpool ucp_requests
[1661219062.990534] [nc30345:674404:0]          mpool.c:42   UCX  WARN  object 0xb9a6980 was not returned to mpool ucp_requests
[1661219062.990537] [nc30345:674404:0]          mpool.c:42   UCX  WARN  object 0xb9a6b40 was not returned to mpool ucp_requests
[1661219062.990541] [nc30345:674404:0]          mpool.c:42   UCX  WARN  object 0xb9a6d00 was not returned to mpool ucp_requests
[1661219062.990543] [nc30345:674404:0]          mpool.c:42   UCX  WARN  object 0xb9a6ec0 was not returned to mpool ucp_requests
[1661219062.990546] [nc30345:674404:0]          mpool.c:42   UCX  WARN  object 0xb9a7080 was not returned to mpool ucp_requests
[1661219062.990549] [nc30345:674404:0]          mpool.c:42   UCX  WARN  object 0xb9a7240 was not returned to mpool ucp_requests
[1661219062.990552] [nc30345:674404:0]          mpool.c:42   UCX  WARN  object 0xb9a7400 was not returned to mpool ucp_requests
[1661219062.990555] [nc30345:674404:0]          mpool.c:42   UCX  WARN  object 0xb9a75c0 was not returned to mpool ucp_requests
[1661219062.993601] [nc30345:674258:0]          mpool.c:42   UCX  WARN  object 0xb430100 was not returned to mpool ucp_requests
[1661219062.993614] [nc30345:674258:0]          mpool.c:42   UCX  WARN  object 0xb4302c0 was not returned to mpool ucp_requests
[1661219062.993619] [nc30345:674258:0]          mpool.c:42   UCX  WARN  object 0xb430480 was not returned to mpool ucp_requests
[1661219062.993622] [nc30345:674258:0]          mpool.c:42   UCX  WARN  object 0xb430640 was not returned to mpool ucp_requests
[1661219062.993624] [nc30345:674258:0]          mpool.c:42   UCX  WARN  object 0xb430800 was not returned to mpool ucp_requests
[1661219062.993627] [nc30345:674258:0]          mpool.c:42   UCX  WARN  object 0xb4309c0 was not returned to mpool ucp_requests
[1661219062.993629] [nc30345:674258:0]          mpool.c:42   UCX  WARN  object 0xb430b80 was not returned to mpool ucp_requests
[1661219062.993631] [nc30345:674258:0]          mpool.c:42   UCX  WARN  object 0xb430d40 was not returned to mpool ucp_requests
[1661219062.993633] [nc30345:674258:0]          mpool.c:42   UCX  WARN  object 0xb430f00 was not returned to mpool ucp_requests
[1661219062.993636] [nc30345:674258:0]          mpool.c:42   UCX  WARN  object 0xb4310c0 was not returned to mpool ucp_requests
[1661219062.993638] [nc30345:674258:0]          mpool.c:42   UCX  WARN  object 0xb431280 was not returned to mpool ucp_requests
[1661219062.993640] [nc30345:674258:0]          mpool.c:42   UCX  WARN  object 0xb431440 was not returned to mpool ucp_requests
[1661219062.998995] [nc30345:674382:0]          mpool.c:42   UCX  WARN  object 0xb714280 was not returned to mpool ucp_requests
[1661219062.999018] [nc30345:674382:0]          mpool.c:42   UCX  WARN  object 0xb714440 was not returned to mpool ucp_requests
[1661219062.999023] [nc30345:674382:0]          mpool.c:42   UCX  WARN  object 0xb714600 was not returned to mpool ucp_requests
[1661219062.999026] [nc30345:674382:0]          mpool.c:42   UCX  WARN  object 0xb7147c0 was not returned to mpool ucp_requests
[1661219062.999028] [nc30345:674382:0]          mpool.c:42   UCX  WARN  object 0xb714980 was not returned to mpool ucp_requests
[1661219062.999032] [nc30345:674382:0]          mpool.c:42   UCX  WARN  object 0xb714b40 was not returned to mpool ucp_requests
[1661219062.999036] [nc30345:674382:0]          mpool.c:42   UCX  WARN  object 0xb714d00 was not returned to mpool ucp_requests
[1661219062.999039] [nc30345:674382:0]          mpool.c:42   UCX  WARN  object 0xb714ec0 was not returned to mpool ucp_requests
[1661219062.999043] [nc30345:674382:0]          mpool.c:42   UCX  WARN  object 0xb715080 was not returned to mpool ucp_requests
[1661219062.999046] [nc30345:674382:0]          mpool.c:42   UCX  WARN  object 0xb715240 was not returned to mpool ucp_requests
[1661219062.999048] [nc30345:674382:0]          mpool.c:42   UCX  WARN  object 0xb715400 was not returned to mpool ucp_requests
[1661219063.000667] [nc30345:674495:0]          mpool.c:42   UCX  WARN  object 0xb11d2c0 was not returned to mpool ucp_requests
[1661219063.000689] [nc30345:674495:0]          mpool.c:42   UCX  WARN  object 0xb11d480 was not returned to mpool ucp_requests
[1661219063.000694] [nc30345:674495:0]          mpool.c:42   UCX  WARN  object 0xb11d640 was not returned to mpool ucp_requests
[1661219063.000699] [nc30345:674495:0]          mpool.c:42   UCX  WARN  object 0xb11d800 was not returned to mpool ucp_requests
[1661219063.000702] [nc30345:674495:0]          mpool.c:42   UCX  WARN  object 0xb11d9c0 was not returned to mpool ucp_requests
[1661219063.000705] [nc30345:674495:0]          mpool.c:42   UCX  WARN  object 0xb11db80 was not returned to mpool ucp_requests
[1661219063.000709] [nc30345:674495:0]          mpool.c:42   UCX  WARN  object 0xb11dd40 was not returned to mpool ucp_requests
[1661219063.000714] [nc30345:674495:0]          mpool.c:42   UCX  WARN  object 0xb11df00 was not returned to mpool ucp_requests
[1661219063.000718] [nc30345:674495:0]          mpool.c:42   UCX  WARN  object 0xb11e0c0 was not returned to mpool ucp_requests
[1661219063.000721] [nc30345:674495:0]          mpool.c:42   UCX  WARN  object 0xb11e280 was not returned to mpool ucp_requests
[1661219063.000724] [nc30345:674495:0]          mpool.c:42   UCX  WARN  object 0xb11e440 was not returned to mpool ucp_requests
[1661219063.001999] [nc30345:674348:0]          mpool.c:42   UCX  WARN  object 0xbf52940 was not returned to mpool ucp_requests
[1661219063.002021] [nc30345:674348:0]          mpool.c:42   UCX  WARN  object 0xbf52b00 was not returned to mpool ucp_requests
[1661219063.002026] [nc30345:674348:0]          mpool.c:42   UCX  WARN  object 0xbf52cc0 was not returned to mpool ucp_requests
[1661219063.002029] [nc30345:674348:0]          mpool.c:42   UCX  WARN  object 0xbf52e80 was not returned to mpool ucp_requests
[1661219063.002033] [nc30345:674348:0]          mpool.c:42   UCX  WARN  object 0xbf53040 was not returned to mpool ucp_requests
[1661219063.002037] [nc30345:674348:0]          mpool.c:42   UCX  WARN  object 0xbf53200 was not returned to mpool ucp_requests
[1661219063.002041] [nc30345:674348:0]          mpool.c:42   UCX  WARN  object 0xbf533c0 was not returned to mpool ucp_requests
[1661219063.002045] [nc30345:674348:0]          mpool.c:42   UCX  WARN  object 0xbf53580 was not returned to mpool ucp_requests
[1661219063.002048] [nc30345:674348:0]          mpool.c:42   UCX  WARN  object 0xbf53740 was not returned to mpool ucp_requests
[1661219063.002052] [nc30345:674348:0]          mpool.c:42   UCX  WARN  object 0xbf53900 was not returned to mpool ucp_requests
[1661219063.002056] [nc30345:674348:0]          mpool.c:42   UCX  WARN  object 0xbf53ac0 was not returned to mpool ucp_requests
[1661219063.003976] [nc30345:674387:0]          mpool.c:42   UCX  WARN  object 0xc0602c0 was not returned to mpool ucp_requests
[1661219063.003993] [nc30345:674387:0]          mpool.c:42   UCX  WARN  object 0xc060480 was not returned to mpool ucp_requests
[1661219063.003997] [nc30345:674387:0]          mpool.c:42   UCX  WARN  object 0xc060640 was not returned to mpool ucp_requests
[1661219063.004001] [nc30345:674387:0]          mpool.c:42   UCX  WARN  object 0xc060800 was not returned to mpool ucp_requests
[1661219063.004004] [nc30345:674387:0]          mpool.c:42   UCX  WARN  object 0xc0609c0 was not returned to mpool ucp_requests
[1661219063.004008] [nc30345:674387:0]          mpool.c:42   UCX  WARN  object 0xc060b80 was not returned to mpool ucp_requests
[1661219063.004013] [nc30345:674387:0]          mpool.c:42   UCX  WARN  object 0xc060d40 was not returned to mpool ucp_requests
[1661219063.004017] [nc30345:674387:0]          mpool.c:42   UCX  WARN  object 0xc060f00 was not returned to mpool ucp_requests
[1661219063.004020] [nc30345:674387:0]          mpool.c:42   UCX  WARN  object 0xc0610c0 was not returned to mpool ucp_requests
[1661219063.004025] [nc30345:674387:0]          mpool.c:42   UCX  WARN  object 0xc061280 was not returned to mpool ucp_requests
[1661219063.004028] [nc30345:674387:0]          mpool.c:42   UCX  WARN  object 0xc061440 was not returned to mpool ucp_requests
[1661219063.005529] [nc30345:674276:0]          mpool.c:42   UCX  WARN  object 0xaf690c0 was not returned to mpool ucp_requests
[1661219063.005543] [nc30345:674276:0]          mpool.c:42   UCX  WARN  object 0xaf69280 was not returned to mpool ucp_requests
[1661219063.005548] [nc30345:674276:0]          mpool.c:42   UCX  WARN  object 0xaf69440 was not returned to mpool ucp_requests
[1661219063.005552] [nc30345:674276:0]          mpool.c:42   UCX  WARN  object 0xaf69600 was not returned to mpool ucp_requests
[1661219063.005556] [nc30345:674276:0]          mpool.c:42   UCX  WARN  object 0xaf697c0 was not returned to mpool ucp_requests
[1661219063.005560] [nc30345:674276:0]          mpool.c:42   UCX  WARN  object 0xaf69980 was not returned to mpool ucp_requests
[1661219063.005563] [nc30345:674276:0]          mpool.c:42   UCX  WARN  object 0xaf69b40 was not returned to mpool ucp_requests
[1661219063.005567] [nc30345:674276:0]          mpool.c:42   UCX  WARN  object 0xaf69d00 was not returned to mpool ucp_requests
[1661219063.005571] [nc30345:674276:0]          mpool.c:42   UCX  WARN  object 0xaf69ec0 was not returned to mpool ucp_requests
[1661219063.005575] [nc30345:674276:0]          mpool.c:42   UCX  WARN  object 0xaf6a080 was not returned to mpool ucp_requests
[1661219063.005578] [nc30345:674276:0]          mpool.c:42   UCX  WARN  object 0xaf6a240 was not returned to mpool ucp_requests
[1661219063.005582] [nc30345:674276:0]          mpool.c:42   UCX  WARN  object 0xaf6a400 was not returned to mpool ucp_requests
[1661219063.006835] [nc30345:674246:0]          mpool.c:42   UCX  WARN  object 0xaa62e40 was not returned to mpool ucp_requests
[1661219063.006856] [nc30345:674246:0]          mpool.c:42   UCX  WARN  object 0xaa63000 was not returned to mpool ucp_requests
[1661219063.006861] [nc30345:674246:0]          mpool.c:42   UCX  WARN  object 0xaa631c0 was not returned to mpool ucp_requests
[1661219063.006865] [nc30345:674246:0]          mpool.c:42   UCX  WARN  object 0xaa63380 was not returned to mpool ucp_requests
[1661219063.006869] [nc30345:674246:0]          mpool.c:42   UCX  WARN  object 0xaa63540 was not returned to mpool ucp_requests
[1661219063.006873] [nc30345:674246:0]          mpool.c:42   UCX  WARN  object 0xaa63700 was not returned to mpool ucp_requests
[1661219063.006877] [nc30345:674246:0]          mpool.c:42   UCX  WARN  object 0xaa638c0 was not returned to mpool ucp_requests
[1661219063.006880] [nc30345:674246:0]          mpool.c:42   UCX  WARN  object 0xaa63a80 was not returned to mpool ucp_requests
[1661219063.006883] [nc30345:674246:0]          mpool.c:42   UCX  WARN  object 0xaa63c40 was not returned to mpool ucp_requests
[1661219063.006887] [nc30345:674246:0]          mpool.c:42   UCX  WARN  object 0xaa63e00 was not returned to mpool ucp_requests
[1661219063.006891] [nc30345:674246:0]          mpool.c:42   UCX  WARN  object 0xaa63fc0 was not returned to mpool ucp_requests
[1661219063.006895] [nc30345:674246:0]          mpool.c:42   UCX  WARN  object 0xaa64180 was not returned to mpool ucp_requests
[1661219063.007504] [nc30345:674414:0]          mpool.c:42   UCX  WARN  object 0xbad9740 was not returned to mpool ucp_requests
[1661219063.007521] [nc30345:674414:0]          mpool.c:42   UCX  WARN  object 0xbad9900 was not returned to mpool ucp_requests
[1661219063.007526] [nc30345:674414:0]          mpool.c:42   UCX  WARN  object 0xbad9ac0 was not returned to mpool ucp_requests
[1661219063.007530] [nc30345:674414:0]          mpool.c:42   UCX  WARN  object 0xbad9c80 was not returned to mpool ucp_requests
[1661219063.007533] [nc30345:674414:0]          mpool.c:42   UCX  WARN  object 0xbad9e40 was not returned to mpool ucp_requests
[1661219063.007538] [nc30345:674414:0]          mpool.c:42   UCX  WARN  object 0xbada000 was not returned to mpool ucp_requests
[1661219063.007543] [nc30345:674414:0]          mpool.c:42   UCX  WARN  object 0xbada1c0 was not returned to mpool ucp_requests
[1661219063.007546] [nc30345:674414:0]          mpool.c:42   UCX  WARN  object 0xbada380 was not returned to mpool ucp_requests
[1661219063.007549] [nc30345:674414:0]          mpool.c:42   UCX  WARN  object 0xbada540 was not returned to mpool ucp_requests
[1661219063.007554] [nc30345:674414:0]          mpool.c:42   UCX  WARN  object 0xbada700 was not returned to mpool ucp_requests
[1661219063.007558] [nc30345:674414:0]          mpool.c:42   UCX  WARN  object 0xbada8c0 was not returned to mpool ucp_requests
[1661219063.007929] [nc30345:674521:0]          mpool.c:42   UCX  WARN  object 0xc1762c0 was not returned to mpool ucp_requests
[1661219063.007951] [nc30345:674521:0]          mpool.c:42   UCX  WARN  object 0xc176480 was not returned to mpool ucp_requests
[1661219063.007957] [nc30345:674521:0]          mpool.c:42   UCX  WARN  object 0xc176640 was not returned to mpool ucp_requests
[1661219063.007962] [nc30345:674521:0]          mpool.c:42   UCX  WARN  object 0xc176800 was not returned to mpool ucp_requests
[1661219063.007966] [nc30345:674521:0]          mpool.c:42   UCX  WARN  object 0xc1769c0 was not returned to mpool ucp_requests
[1661219063.007971] [nc30345:674521:0]          mpool.c:42   UCX  WARN  object 0xc176b80 was not returned to mpool ucp_requests
[1661219063.007975] [nc30345:674521:0]          mpool.c:42   UCX  WARN  object 0xc176d40 was not returned to mpool ucp_requests
[1661219063.007979] [nc30345:674521:0]          mpool.c:42   UCX  WARN  object 0xc176f00 was not returned to mpool ucp_requests
[1661219063.007983] [nc30345:674521:0]          mpool.c:42   UCX  WARN  object 0xc1770c0 was not returned to mpool ucp_requests
[1661219063.007987] [nc30345:674521:0]          mpool.c:42   UCX  WARN  object 0xc177280 was not returned to mpool ucp_requests
[1661219063.007991] [nc30345:674521:0]          mpool.c:42   UCX  WARN  object 0xc177440 was not returned to mpool ucp_requests
[1661219063.008444] [nc30345:674419:0]          mpool.c:42   UCX  WARN  object 0xc21a2c0 was not returned to mpool ucp_requests
[1661219063.008468] [nc30345:674419:0]          mpool.c:42   UCX  WARN  object 0xc21a480 was not returned to mpool ucp_requests
[1661219063.008473] [nc30345:674419:0]          mpool.c:42   UCX  WARN  object 0xc21a640 was not returned to mpool ucp_requests
[1661219063.008476] [nc30345:674419:0]          mpool.c:42   UCX  WARN  object 0xc21a800 was not returned to mpool ucp_requests
[1661219063.008480] [nc30345:674419:0]          mpool.c:42   UCX  WARN  object 0xc21a9c0 was not returned to mpool ucp_requests
[1661219063.008485] [nc30345:674419:0]          mpool.c:42   UCX  WARN  object 0xc21ab80 was not returned to mpool ucp_requests
[1661219063.008489] [nc30345:674419:0]          mpool.c:42   UCX  WARN  object 0xc21ad40 was not returned to mpool ucp_requests
[1661219063.008493] [nc30345:674419:0]          mpool.c:42   UCX  WARN  object 0xc21af00 was not returned to mpool ucp_requests
[1661219063.008497] [nc30345:674419:0]          mpool.c:42   UCX  WARN  object 0xc21b0c0 was not returned to mpool ucp_requests
[1661219063.008501] [nc30345:674419:0]          mpool.c:42   UCX  WARN  object 0xc21b280 was not returned to mpool ucp_requests
[1661219063.008505] [nc30345:674419:0]          mpool.c:42   UCX  WARN  object 0xc21b440 was not returned to mpool ucp_requests
[1661219063.010333] [nc30345:674500:0]          mpool.c:42   UCX  WARN  object 0xa4912c0 was not returned to mpool ucp_requests
[1661219063.010361] [nc30345:674500:0]          mpool.c:42   UCX  WARN  object 0xa491480 was not returned to mpool ucp_requests
[1661219063.010365] [nc30345:674500:0]          mpool.c:42   UCX  WARN  object 0xa491640 was not returned to mpool ucp_requests
[1661219063.010369] [nc30345:674500:0]          mpool.c:42   UCX  WARN  object 0xa491800 was not returned to mpool ucp_requests
[1661219063.010372] [nc30345:674500:0]          mpool.c:42   UCX  WARN  object 0xa4919c0 was not returned to mpool ucp_requests
[1661219063.010376] [nc30345:674500:0]          mpool.c:42   UCX  WARN  object 0xa491b80 was not returned to mpool ucp_requests
[1661219063.010380] [nc30345:674500:0]          mpool.c:42   UCX  WARN  object 0xa491d40 was not returned to mpool ucp_requests
[1661219063.010384] [nc30345:674500:0]          mpool.c:42   UCX  WARN  object 0xa491f00 was not returned to mpool ucp_requests
[1661219063.010387] [nc30345:674500:0]          mpool.c:42   UCX  WARN  object 0xa4920c0 was not returned to mpool ucp_requests
[1661219063.010392] [nc30345:674500:0]          mpool.c:42   UCX  WARN  object 0xa492280 was not returned to mpool ucp_requests
[1661219063.010396] [nc30345:674500:0]          mpool.c:42   UCX  WARN  object 0xa492440 was not returned to mpool ucp_requests
[1661219063.011518] [nc30345:674244:0]          mpool.c:42   UCX  WARN  object 0xba2b0c0 was not returned to mpool ucp_requests
[1661219063.011532] [nc30345:674244:0]          mpool.c:42   UCX  WARN  object 0xba2b280 was not returned to mpool ucp_requests
[1661219063.011537] [nc30345:674244:0]          mpool.c:42   UCX  WARN  object 0xba2b440 was not returned to mpool ucp_requests
[1661219063.011540] [nc30345:674244:0]          mpool.c:42   UCX  WARN  object 0xba2b600 was not returned to mpool ucp_requests
[1661219063.011544] [nc30345:674244:0]          mpool.c:42   UCX  WARN  object 0xba2b7c0 was not returned to mpool ucp_requests
[1661219063.011547] [nc30345:674244:0]          mpool.c:42   UCX  WARN  object 0xba2b980 was not returned to mpool ucp_requests
[1661219063.011551] [nc30345:674244:0]          mpool.c:42   UCX  WARN  object 0xba2bb40 was not returned to mpool ucp_requests
[1661219063.011555] [nc30345:674244:0]          mpool.c:42   UCX  WARN  object 0xba2bd00 was not returned to mpool ucp_requests
[1661219063.011557] [nc30345:674244:0]          mpool.c:42   UCX  WARN  object 0xba2bec0 was not returned to mpool ucp_requests
[1661219063.011561] [nc30345:674244:0]          mpool.c:42   UCX  WARN  object 0xba2c080 was not returned to mpool ucp_requests
[1661219063.011565] [nc30345:674244:0]          mpool.c:42   UCX  WARN  object 0xba2c240 was not returned to mpool ucp_requests
[1661219063.011569] [nc30345:674244:0]          mpool.c:42   UCX  WARN  object 0xba2c400 was not returned to mpool ucp_requests
[1661219063.012978] [nc30345:674259:0]          mpool.c:42   UCX  WARN  object 0xa6ce580 was not returned to mpool ucp_requests
[1661219063.013000] [nc30345:674259:0]          mpool.c:42   UCX  WARN  object 0xa6ce740 was not returned to mpool ucp_requests
[1661219063.013005] [nc30345:674259:0]          mpool.c:42   UCX  WARN  object 0xa6ce900 was not returned to mpool ucp_requests
[1661219063.013009] [nc30345:674259:0]          mpool.c:42   UCX  WARN  object 0xa6ceac0 was not returned to mpool ucp_requests
[1661219063.013013] [nc30345:674259:0]          mpool.c:42   UCX  WARN  object 0xa6cec80 was not returned to mpool ucp_requests
[1661219063.013018] [nc30345:674259:0]          mpool.c:42   UCX  WARN  object 0xa6cee40 was not returned to mpool ucp_requests
[1661219063.013022] [nc30345:674259:0]          mpool.c:42   UCX  WARN  object 0xa6cf000 was not returned to mpool ucp_requests
[1661219063.013026] [nc30345:674259:0]          mpool.c:42   UCX  WARN  object 0xa6cf1c0 was not returned to mpool ucp_requests
[1661219063.013029] [nc30345:674259:0]          mpool.c:42   UCX  WARN  object 0xa6cf380 was not returned to mpool ucp_requests
[1661219063.013033] [nc30345:674259:0]          mpool.c:42   UCX  WARN  object 0xa6cf540 was not returned to mpool ucp_requests
[1661219063.013036] [nc30345:674259:0]          mpool.c:42   UCX  WARN  object 0xa6cf700 was not returned to mpool ucp_requests
[1661219063.013040] [nc30345:674259:0]          mpool.c:42   UCX  WARN  object 0xa6cf8c0 was not returned to mpool ucp_requests
[1661219063.013270] [nc30345:674452:0]          mpool.c:42   UCX  WARN  object 0xb081740 was not returned to mpool ucp_requests
[1661219063.013293] [nc30345:674452:0]          mpool.c:42   UCX  WARN  object 0xb081900 was not returned to mpool ucp_requests
[1661219063.013299] [nc30345:674452:0]          mpool.c:42   UCX  WARN  object 0xb081ac0 was not returned to mpool ucp_requests
[1661219063.013302] [nc30345:674452:0]          mpool.c:42   UCX  WARN  object 0xb081c80 was not returned to mpool ucp_requests
[1661219063.013304] [nc30345:674452:0]          mpool.c:42   UCX  WARN  object 0xb081e40 was not returned to mpool ucp_requests
[1661219063.013308] [nc30345:674452:0]          mpool.c:42   UCX  WARN  object 0xb082000 was not returned to mpool ucp_requests
[1661219063.013311] [nc30345:674452:0]          mpool.c:42   UCX  WARN  object 0xb0821c0 was not returned to mpool ucp_requests
[1661219063.013314] [nc30345:674452:0]          mpool.c:42   UCX  WARN  object 0xb082380 was not returned to mpool ucp_requests
[1661219063.013317] [nc30345:674452:0]          mpool.c:42   UCX  WARN  object 0xb082540 was not returned to mpool ucp_requests
[1661219063.013321] [nc30345:674452:0]          mpool.c:42   UCX  WARN  object 0xb082700 was not returned to mpool ucp_requests
[1661219063.013324] [nc30345:674452:0]          mpool.c:42   UCX  WARN  object 0xb0828c0 was not returned to mpool ucp_requests
[1661219063.013787] [nc30345:674261:0]          mpool.c:42   UCX  WARN  object 0xbae6000 was not returned to mpool ucp_requests
[1661219063.013810] [nc30345:674261:0]          mpool.c:42   UCX  WARN  object 0xbae61c0 was not returned to mpool ucp_requests
[1661219063.013816] [nc30345:674261:0]          mpool.c:42   UCX  WARN  object 0xbae6380 was not returned to mpool ucp_requests
[1661219063.013820] [nc30345:674261:0]          mpool.c:42   UCX  WARN  object 0xbae6540 was not returned to mpool ucp_requests
[1661219063.013823] [nc30345:674261:0]          mpool.c:42   UCX  WARN  object 0xbae6700 was not returned to mpool ucp_requests
[1661219063.013826] [nc30345:674261:0]          mpool.c:42   UCX  WARN  object 0xbae68c0 was not returned to mpool ucp_requests
[1661219063.013830] [nc30345:674261:0]          mpool.c:42   UCX  WARN  object 0xbae6a80 was not returned to mpool ucp_requests
[1661219063.013832] [nc30345:674261:0]          mpool.c:42   UCX  WARN  object 0xbae6c40 was not returned to mpool ucp_requests
[1661219063.013835] [nc30345:674261:0]          mpool.c:42   UCX  WARN  object 0xbae6e00 was not returned to mpool ucp_requests
[1661219063.013839] [nc30345:674261:0]          mpool.c:42   UCX  WARN  object 0xbae6fc0 was not returned to mpool ucp_requests
[1661219063.013842] [nc30345:674261:0]          mpool.c:42   UCX  WARN  object 0xbae7180 was not returned to mpool ucp_requests
[1661219063.013845] [nc30345:674261:0]          mpool.c:42   UCX  WARN  object 0xbae7340 was not returned to mpool ucp_requests
[1661219063.014296] [nc30345:674386:0]          mpool.c:42   UCX  WARN  object 0xbd1af80 was not returned to mpool ucp_requests
[1661219063.014313] [nc30345:674386:0]          mpool.c:42   UCX  WARN  object 0xbd1b140 was not returned to mpool ucp_requests
[1661219063.014319] [nc30345:674386:0]          mpool.c:42   UCX  WARN  object 0xbd1b300 was not returned to mpool ucp_requests
[1661219063.014323] [nc30345:674386:0]          mpool.c:42   UCX  WARN  object 0xbd1b4c0 was not returned to mpool ucp_requests
[1661219063.014326] [nc30345:674386:0]          mpool.c:42   UCX  WARN  object 0xbd1b680 was not returned to mpool ucp_requests
[1661219063.014331] [nc30345:674386:0]          mpool.c:42   UCX  WARN  object 0xbd1b840 was not returned to mpool ucp_requests
[1661219063.014334] [nc30345:674386:0]          mpool.c:42   UCX  WARN  object 0xbd1ba00 was not returned to mpool ucp_requests
[1661219063.014338] [nc30345:674386:0]          mpool.c:42   UCX  WARN  object 0xbd1bbc0 was not returned to mpool ucp_requests
[1661219063.014342] [nc30345:674386:0]          mpool.c:42   UCX  WARN  object 0xbd1bd80 was not returned to mpool ucp_requests
[1661219063.014346] [nc30345:674386:0]          mpool.c:42   UCX  WARN  object 0xbd1bf40 was not returned to mpool ucp_requests
[1661219063.014349] [nc30345:674386:0]          mpool.c:42   UCX  WARN  object 0xbd1c100 was not returned to mpool ucp_requests
[1661219063.014425] [nc30345:674254:0]          mpool.c:42   UCX  WARN  object 0xb640100 was not returned to mpool ucp_requests
[1661219063.014442] [nc30345:674254:0]          mpool.c:42   UCX  WARN  object 0xb6402c0 was not returned to mpool ucp_requests
[1661219063.014446] [nc30345:674254:0]          mpool.c:42   UCX  WARN  object 0xb640480 was not returned to mpool ucp_requests
[1661219063.014449] [nc30345:674254:0]          mpool.c:42   UCX  WARN  object 0xb640640 was not returned to mpool ucp_requests
[1661219063.014452] [nc30345:674254:0]          mpool.c:42   UCX  WARN  object 0xb640800 was not returned to mpool ucp_requests
[1661219063.014455] [nc30345:674254:0]          mpool.c:42   UCX  WARN  object 0xb6409c0 was not returned to mpool ucp_requests
[1661219063.014457] [nc30345:674254:0]          mpool.c:42   UCX  WARN  object 0xb640b80 was not returned to mpool ucp_requests
[1661219063.014459] [nc30345:674254:0]          mpool.c:42   UCX  WARN  object 0xb640d40 was not returned to mpool ucp_requests
[1661219063.014461] [nc30345:674254:0]          mpool.c:42   UCX  WARN  object 0xb640f00 was not returned to mpool ucp_requests
[1661219063.014465] [nc30345:674254:0]          mpool.c:42   UCX  WARN  object 0xb6410c0 was not returned to mpool ucp_requests
[1661219063.014467] [nc30345:674254:0]          mpool.c:42   UCX  WARN  object 0xb641280 was not returned to mpool ucp_requests
[1661219063.014470] [nc30345:674254:0]          mpool.c:42   UCX  WARN  object 0xb641440 was not returned to mpool ucp_requests
[1661219063.014882] [nc30345:674337:0]          mpool.c:42   UCX  WARN  object 0xb3cef80 was not returned to mpool ucp_requests
[1661219063.014902] [nc30345:674337:0]          mpool.c:42   UCX  WARN  object 0xb3cf140 was not returned to mpool ucp_requests
[1661219063.014908] [nc30345:674337:0]          mpool.c:42   UCX  WARN  object 0xb3cf300 was not returned to mpool ucp_requests
[1661219063.014912] [nc30345:674337:0]          mpool.c:42   UCX  WARN  object 0xb3cf4c0 was not returned to mpool ucp_requests
[1661219063.014916] [nc30345:674337:0]          mpool.c:42   UCX  WARN  object 0xb3cf680 was not returned to mpool ucp_requests
[1661219063.014919] [nc30345:674337:0]          mpool.c:42   UCX  WARN  object 0xb3cf840 was not returned to mpool ucp_requests
[1661219063.014924] [nc30345:674337:0]          mpool.c:42   UCX  WARN  object 0xb3cfa00 was not returned to mpool ucp_requests
[1661219063.014927] [nc30345:674337:0]          mpool.c:42   UCX  WARN  object 0xb3cfbc0 was not returned to mpool ucp_requests
[1661219063.014931] [nc30345:674337:0]          mpool.c:42   UCX  WARN  object 0xb3cfd80 was not returned to mpool ucp_requests
[1661219063.014937] [nc30345:674337:0]          mpool.c:42   UCX  WARN  object 0xb3cff40 was not returned to mpool ucp_requests
[1661219063.014941] [nc30345:674337:0]          mpool.c:42   UCX  WARN  object 0xb3d0100 was not returned to mpool ucp_requests
[1661219063.016134] [nc30345:674334:0]          mpool.c:42   UCX  WARN  object 0xbed94c0 was not returned to mpool ucp_requests
[1661219063.016156] [nc30345:674334:0]          mpool.c:42   UCX  WARN  object 0xbed9680 was not returned to mpool ucp_requests
[1661219063.016162] [nc30345:674334:0]          mpool.c:42   UCX  WARN  object 0xbed9840 was not returned to mpool ucp_requests
[1661219063.016166] [nc30345:674334:0]          mpool.c:42   UCX  WARN  object 0xbed9a00 was not returned to mpool ucp_requests
[1661219063.016168] [nc30345:674334:0]          mpool.c:42   UCX  WARN  object 0xbed9bc0 was not returned to mpool ucp_requests
[1661219063.016172] [nc30345:674334:0]          mpool.c:42   UCX  WARN  object 0xbed9d80 was not returned to mpool ucp_requests
[1661219063.016176] [nc30345:674334:0]          mpool.c:42   UCX  WARN  object 0xbed9f40 was not returned to mpool ucp_requests
[1661219063.016180] [nc30345:674334:0]          mpool.c:42   UCX  WARN  object 0xbeda100 was not returned to mpool ucp_requests
[1661219063.016183] [nc30345:674334:0]          mpool.c:42   UCX  WARN  object 0xbeda2c0 was not returned to mpool ucp_requests
[1661219063.016187] [nc30345:674334:0]          mpool.c:42   UCX  WARN  object 0xbeda480 was not returned to mpool ucp_requests
[1661219063.016191] [nc30345:674334:0]          mpool.c:42   UCX  WARN  object 0xbeda640 was not returned to mpool ucp_requests
[1661219063.016194] [nc30345:674334:0]          mpool.c:42   UCX  WARN  object 0xbeda800 was not returned to mpool ucp_requests
[1661219063.016198] [nc30345:674334:0]          mpool.c:42   UCX  WARN  object 0xbeda9c0 was not returned to mpool ucp_requests
[1661219063.016274] [nc30345:674263:0]          mpool.c:42   UCX  WARN  object 0xb2ae4c0 was not returned to mpool ucp_requests
[1661219063.016290] [nc30345:674263:0]          mpool.c:42   UCX  WARN  object 0xb2ae680 was not returned to mpool ucp_requests
[1661219063.016294] [nc30345:674263:0]          mpool.c:42   UCX  WARN  object 0xb2ae840 was not returned to mpool ucp_requests
[1661219063.016297] [nc30345:674263:0]          mpool.c:42   UCX  WARN  object 0xb2aea00 was not returned to mpool ucp_requests
[1661219063.016300] [nc30345:674263:0]          mpool.c:42   UCX  WARN  object 0xb2aebc0 was not returned to mpool ucp_requests
[1661219063.016303] [nc30345:674263:0]          mpool.c:42   UCX  WARN  object 0xb2aed80 was not returned to mpool ucp_requests
[1661219063.016306] [nc30345:674263:0]          mpool.c:42   UCX  WARN  object 0xb2aef40 was not returned to mpool ucp_requests
[1661219063.016309] [nc30345:674263:0]          mpool.c:42   UCX  WARN  object 0xb2af100 was not returned to mpool ucp_requests
[1661219063.016312] [nc30345:674263:0]          mpool.c:42   UCX  WARN  object 0xb2af2c0 was not returned to mpool ucp_requests
[1661219063.016315] [nc30345:674263:0]          mpool.c:42   UCX  WARN  object 0xb2af480 was not returned to mpool ucp_requests
[1661219063.016318] [nc30345:674263:0]          mpool.c:42   UCX  WARN  object 0xb2af640 was not returned to mpool ucp_requests
[1661219063.016323] [nc30345:674263:0]          mpool.c:42   UCX  WARN  object 0xb2af800 was not returned to mpool ucp_requests
[1661219063.016570] [nc30345:674409:0]          mpool.c:42   UCX  WARN  object 0xb691440 was not returned to mpool ucp_requests
[1661219063.016586] [nc30345:674409:0]          mpool.c:42   UCX  WARN  object 0xb691600 was not returned to mpool ucp_requests
[1661219063.016591] [nc30345:674409:0]          mpool.c:42   UCX  WARN  object 0xb6917c0 was not returned to mpool ucp_requests
[1661219063.016595] [nc30345:674409:0]          mpool.c:42   UCX  WARN  object 0xb691980 was not returned to mpool ucp_requests
[1661219063.016599] [nc30345:674409:0]          mpool.c:42   UCX  WARN  object 0xb691b40 was not returned to mpool ucp_requests
[1661219063.016602] [nc30345:674409:0]          mpool.c:42   UCX  WARN  object 0xb691d00 was not returned to mpool ucp_requests
[1661219063.016607] [nc30345:674409:0]          mpool.c:42   UCX  WARN  object 0xb691ec0 was not returned to mpool ucp_requests
[1661219063.016611] [nc30345:674409:0]          mpool.c:42   UCX  WARN  object 0xb692080 was not returned to mpool ucp_requests
[1661219063.016615] [nc30345:674409:0]          mpool.c:42   UCX  WARN  object 0xb692240 was not returned to mpool ucp_requests
[1661219063.016619] [nc30345:674409:0]          mpool.c:42   UCX  WARN  object 0xb692400 was not returned to mpool ucp_requests
[1661219063.016623] [nc30345:674409:0]          mpool.c:42   UCX  WARN  object 0xb6925c0 was not returned to mpool ucp_requests
[1661219063.017851] [nc30345:674251:0]          mpool.c:42   UCX  WARN  object 0xa82c700 was not returned to mpool ucp_requests
[1661219063.017866] [nc30345:674251:0]          mpool.c:42   UCX  WARN  object 0xa82c8c0 was not returned to mpool ucp_requests
[1661219063.017872] [nc30345:674251:0]          mpool.c:42   UCX  WARN  object 0xa82ca80 was not returned to mpool ucp_requests
[1661219063.017876] [nc30345:674251:0]          mpool.c:42   UCX  WARN  object 0xa82cc40 was not returned to mpool ucp_requests
[1661219063.017878] [nc30345:674251:0]          mpool.c:42   UCX  WARN  object 0xa82ce00 was not returned to mpool ucp_requests
[1661219063.017882] [nc30345:674251:0]          mpool.c:42   UCX  WARN  object 0xa82cfc0 was not returned to mpool ucp_requests
[1661219063.017886] [nc30345:674251:0]          mpool.c:42   UCX  WARN  object 0xa82d180 was not returned to mpool ucp_requests
[1661219063.017890] [nc30345:674251:0]          mpool.c:42   UCX  WARN  object 0xa82d340 was not returned to mpool ucp_requests
[1661219063.017894] [nc30345:674251:0]          mpool.c:42   UCX  WARN  object 0xa82d500 was not returned to mpool ucp_requests
[1661219063.017898] [nc30345:674251:0]          mpool.c:42   UCX  WARN  object 0xa82d6c0 was not returned to mpool ucp_requests
[1661219063.017902] [nc30345:674251:0]          mpool.c:42   UCX  WARN  object 0xa82d880 was not returned to mpool ucp_requests
[1661219063.017906] [nc30345:674251:0]          mpool.c:42   UCX  WARN  object 0xa82da40 was not returned to mpool ucp_requests
[1661219063.018425] [nc30345:674290:0]          mpool.c:42   UCX  WARN  object 0xbbda0c0 was not returned to mpool ucp_requests
[1661219063.018450] [nc30345:674290:0]          mpool.c:42   UCX  WARN  object 0xbbda280 was not returned to mpool ucp_requests
[1661219063.018455] [nc30345:674290:0]          mpool.c:42   UCX  WARN  object 0xbbda440 was not returned to mpool ucp_requests
[1661219063.018459] [nc30345:674290:0]          mpool.c:42   UCX  WARN  object 0xbbda600 was not returned to mpool ucp_requests
[1661219063.018463] [nc30345:674290:0]          mpool.c:42   UCX  WARN  object 0xbbda7c0 was not returned to mpool ucp_requests
[1661219063.018467] [nc30345:674290:0]          mpool.c:42   UCX  WARN  object 0xbbda980 was not returned to mpool ucp_requests
[1661219063.018469] [nc30345:674290:0]          mpool.c:42   UCX  WARN  object 0xbbdab40 was not returned to mpool ucp_requests
[1661219063.018473] [nc30345:674290:0]          mpool.c:42   UCX  WARN  object 0xbbdad00 was not returned to mpool ucp_requests
[1661219063.018476] [nc30345:674290:0]          mpool.c:42   UCX  WARN  object 0xbbdaec0 was not returned to mpool ucp_requests
[1661219063.018480] [nc30345:674290:0]          mpool.c:42   UCX  WARN  object 0xbbdb080 was not returned to mpool ucp_requests
[1661219063.018484] [nc30345:674290:0]          mpool.c:42   UCX  WARN  object 0xbbdb240 was not returned to mpool ucp_requests
[1661219063.018488] [nc30345:674290:0]          mpool.c:42   UCX  WARN  object 0xbbdb400 was not returned to mpool ucp_requests
[1661219063.018491] [nc30345:674290:0]          mpool.c:42   UCX  WARN  object 0xbbdb5c0 was not returned to mpool ucp_requests
[1661219063.019698] [nc30345:674245:0]          mpool.c:42   UCX  WARN  object 0xb349740 was not returned to mpool ucp_requests
[1661219063.019714] [nc30345:674245:0]          mpool.c:42   UCX  WARN  object 0xb349900 was not returned to mpool ucp_requests
[1661219063.019718] [nc30345:674245:0]          mpool.c:42   UCX  WARN  object 0xb349ac0 was not returned to mpool ucp_requests
[1661219063.019720] [nc30345:674245:0]          mpool.c:42   UCX  WARN  object 0xb349c80 was not returned to mpool ucp_requests
[1661219063.019722] [nc30345:674245:0]          mpool.c:42   UCX  WARN  object 0xb349e40 was not returned to mpool ucp_requests
[1661219063.019724] [nc30345:674245:0]          mpool.c:42   UCX  WARN  object 0xb34a000 was not returned to mpool ucp_requests
[1661219063.019727] [nc30345:674245:0]          mpool.c:42   UCX  WARN  object 0xb34a1c0 was not returned to mpool ucp_requests
[1661219063.019729] [nc30345:674245:0]          mpool.c:42   UCX  WARN  object 0xb34a380 was not returned to mpool ucp_requests
[1661219063.019731] [nc30345:674245:0]          mpool.c:42   UCX  WARN  object 0xb34a540 was not returned to mpool ucp_requests
[1661219063.019733] [nc30345:674245:0]          mpool.c:42   UCX  WARN  object 0xb34a700 was not returned to mpool ucp_requests
[1661219063.019735] [nc30345:674245:0]          mpool.c:42   UCX  WARN  object 0xb34a8c0 was not returned to mpool ucp_requests
[1661219063.019737] [nc30345:674245:0]          mpool.c:42   UCX  WARN  object 0xb34aa80 was not returned to mpool ucp_requests
[1661219063.020286] [nc30345:674253:0]          mpool.c:42   UCX  WARN  object 0xa762700 was not returned to mpool ucp_requests
[1661219063.020308] [nc30345:674253:0]          mpool.c:42   UCX  WARN  object 0xa7628c0 was not returned to mpool ucp_requests
[1661219063.020314] [nc30345:674253:0]          mpool.c:42   UCX  WARN  object 0xa762a80 was not returned to mpool ucp_requests
[1661219063.020318] [nc30345:674253:0]          mpool.c:42   UCX  WARN  object 0xa762c40 was not returned to mpool ucp_requests
[1661219063.020322] [nc30345:674253:0]          mpool.c:42   UCX  WARN  object 0xa762e00 was not returned to mpool ucp_requests
[1661219063.020325] [nc30345:674253:0]          mpool.c:42   UCX  WARN  object 0xa762fc0 was not returned to mpool ucp_requests
[1661219063.020330] [nc30345:674253:0]          mpool.c:42   UCX  WARN  object 0xa763180 was not returned to mpool ucp_requests
[1661219063.020334] [nc30345:674253:0]          mpool.c:42   UCX  WARN  object 0xa763340 was not returned to mpool ucp_requests
[1661219063.020325] [nc30345:674370:0]          mpool.c:42   UCX  WARN  object 0xaf09c80 was not returned to mpool ucp_requests
[1661219063.020350] [nc30345:674370:0]          mpool.c:42   UCX  WARN  object 0xaf09e40 was not returned to mpool ucp_requests
[1661219063.020368] [nc30345:674370:0]          mpool.c:42   UCX  WARN  object 0xaf0a000 was not returned to mpool ucp_requests
[1661219063.020338] [nc30345:674253:0]          mpool.c:42   UCX  WARN  object 0xa763500 was not returned to mpool ucp_requests
[1661219063.020345] [nc30345:674253:0]          mpool.c:42   UCX  WARN  object 0xa7636c0 was not returned to mpool ucp_requests
[1661219063.020350] [nc30345:674253:0]          mpool.c:42   UCX  WARN  object 0xa763880 was not returned to mpool ucp_requests
[1661219063.020360] [nc30345:674253:0]          mpool.c:42   UCX  WARN  object 0xa763a40 was not returned to mpool ucp_requests
[1661219063.020374] [nc30345:674370:0]          mpool.c:42   UCX  WARN  object 0xaf0a1c0 was not returned to mpool ucp_requests
[1661219063.020379] [nc30345:674370:0]          mpool.c:42   UCX  WARN  object 0xaf0a380 was not returned to mpool ucp_requests
[1661219063.020383] [nc30345:674370:0]          mpool.c:42   UCX  WARN  object 0xaf0a540 was not returned to mpool ucp_requests
[1661219063.020387] [nc30345:674370:0]          mpool.c:42   UCX  WARN  object 0xaf0a700 was not returned to mpool ucp_requests
[1661219063.020391] [nc30345:674370:0]          mpool.c:42   UCX  WARN  object 0xaf0a8c0 was not returned to mpool ucp_requests
[1661219063.020395] [nc30345:674370:0]          mpool.c:42   UCX  WARN  object 0xaf0aa80 was not returned to mpool ucp_requests
[1661219063.020400] [nc30345:674370:0]          mpool.c:42   UCX  WARN  object 0xaf0ac40 was not returned to mpool ucp_requests
[1661219063.020404] [nc30345:674370:0]          mpool.c:42   UCX  WARN  object 0xaf0ae00 was not returned to mpool ucp_requests
[1661219063.021342] [nc30345:674497:0]          mpool.c:42   UCX  WARN  object 0xb7e71c0 was not returned to mpool ucp_requests
[1661219063.021370] [nc30345:674497:0]          mpool.c:42   UCX  WARN  object 0xb7e7380 was not returned to mpool ucp_requests
[1661219063.021377] [nc30345:674497:0]          mpool.c:42   UCX  WARN  object 0xb7e7540 was not returned to mpool ucp_requests
[1661219063.021381] [nc30345:674497:0]          mpool.c:42   UCX  WARN  object 0xb7e7700 was not returned to mpool ucp_requests
[...]
 146   43981.7    227.4      0.00000  -0.00554  -0.00119   0.00112
 147   44472.3    224.9      0.00000   0.00025   0.00094   0.00001
 148   44472.4    224.9      0.00000  -0.00030   0.00008  -0.00092
 149   44472.4    224.9     -0.00000  -0.00093   0.00023   0.00030
 150   44474.1    224.8     -0.00000   0.00003  -0.00001   0.00001
 151   44474.2    224.8     -0.00000  -0.00000   0.00001   0.00001
 152   45942.4    217.7      0.00000  -0.00001   0.00001   0.00000
 153   45942.5    217.7     -0.00000   0.00001  -0.00002   0.00000
 154   45942.5    217.7     -0.00000  -0.00000  -0.00001  -0.00000
 155   45949.7    217.6     -0.00000  -0.00001   0.00001   0.00000
 156   45949.7    217.6     -0.00000   0.00001  -0.00001   0.00000
 157   46038.5    217.2      0.00000  -0.00002   0.00003   0.00001
 158   46075.4    217.0     -0.00003  -0.00001   0.00000  -0.00000
 159   46075.4    217.0     -0.00000   0.00000  -0.00000   0.00000
 160   46075.4    217.0      0.00001   0.00001   0.00001   0.00000
 161   46120.9    216.8      0.00001  -0.00002  -0.00000  -0.00001
 162   46121.0    216.8      0.00001  -0.00001   0.00002   0.00001
 163   46121.0    216.8     -0.00001  -0.00002   0.00000  -0.00001
 164   46128.5    216.8      0.00000  -0.00003  -0.00002   0.00003
 165   46207.6    216.4     -0.00016   0.00001  -0.00000   0.00000
 166   46207.6    216.4      0.00005  -0.00001   0.00000   0.00001
 167   46207.7    216.4     -0.00001   0.00002   0.00001   0.00001
 168   46257.5    216.2      0.00000   0.00002   0.00001   0.00000
 169   46259.6    216.2      0.00001  -0.00243  -0.00065  -0.00113
 170   46259.6    216.2     -0.00000   0.00082   0.00111  -0.00239
 171   46259.6    216.2     -0.00001  -0.00095   0.00253   0.00071
 172   46263.0    216.2      0.00000  -0.00005   0.00001  -0.00003
 173   46263.0    216.2      0.00000  -0.00006  -0.00002  -0.00001
 174   46263.4    216.2      0.00000   0.00003   0.00002  -0.00001
 175   46263.5    216.2     -0.00000   0.00000   0.00000   0.00001
 176   46263.5    216.2     -0.00000   0.00000  -0.00000   0.00000
 177   46276.4    216.1     -0.00000  -0.00000   0.00000  -0.00000
 178   46276.4    216.1     -0.00000   0.00000   0.00001   0.00000
 179   46276.4    216.1     -0.00000   0.00000  -0.00000   0.00000
 180   46687.4    214.2     -0.00080   0.52432   0.70303  -0.07834
 181   46687.4    214.2      0.00024  -0.38580   0.20287  -0.76521
 182   46687.5    214.2      0.00086  -0.59189   0.48974   0.42940
 183   46701.2    214.1     -0.00001  -0.00129   0.00308   0.00269
 184   46704.1    214.1     -0.00047   0.13600  -0.13379  -0.30403
 185   46704.1    214.1      0.00048  -0.29213   0.11381  -0.17790
 186   46704.1    214.1      0.00033  -0.16263  -0.31344   0.06518
 187   46729.2    214.0     -0.00000  -0.00004   0.00002  -0.00006
 188   46729.2    214.0     -0.00000   0.00003   0.00013   0.00004
 189   46738.0    214.0     -0.00001  -0.00001  -0.00006   0.00001
 190   46738.1    214.0     -0.00001   0.00005  -0.00008   0.00002
 191   46738.1    214.0     -0.00000  -0.00005  -0.00005   0.00001
 192   46819.8    213.6     -0.00005   0.01105  -0.01140  -0.01561
 193   46819.8    213.6      0.00006   0.01688  -0.00310   0.01416
 194   46819.9    213.6     -0.00004   0.00939   0.01897  -0.00718
 195   46820.9    213.6     -0.00000   0.00025  -0.00030  -0.00023
 196   46958.5    213.0      0.00001  -0.01910   0.00090  -0.00323
 197   46958.6    213.0     -0.00003  -0.00304   0.00322   0.01859
 198   46958.6    213.0      0.00000  -0.00155  -0.01911   0.00316
 199   47095.3    212.3     -0.00000  -0.00005   0.00005  -0.00005
 200   47095.3    212.3     -0.00000   0.00002  -0.00002  -0.00012
 201   47101.8    212.3      0.00002   0.00010   0.00330  -0.00867
 202   47101.8    212.3     -0.00004   0.00253   0.00833   0.00330
 203   47101.9    212.3     -0.00004   0.00908  -0.00241  -0.00083
 204   47106.1    212.3     -0.00000  -0.00001  -0.00003  -0.00000
 205   47106.2    212.3     -0.00000  -0.00002   0.00001   0.00002
 206   47106.2    212.3     -0.00000   0.00002   0.00002   0.00003
 207   47111.4    212.3     -0.00000  -0.00001   0.00004   0.00001
 208   47111.5    212.3     -0.00000  -0.00001   0.00007  -0.00000
 209   47158.8    212.0     -0.00000   0.00001   0.00002  -0.00001
 210   47158.9    212.0     -0.00000   0.00002  -0.00000  -0.00004
 211   47158.9    212.0     -0.00000  -0.00001  -0.00003  -0.00002
 212   47159.9    212.0     -0.00000   0.00002  -0.00008   0.00002
 213   47178.7    212.0      0.00000  -0.00307   0.00045   0.00071
 214   47178.8    212.0      0.00000  -0.00092  -0.00112  -0.00276
 215   47178.8    212.0      0.00002   0.00016   0.00288  -0.00128
 216   47180.6    212.0     -0.00000  -0.00001   0.00000   0.00004
 217   47555.7    210.3      0.00365  -0.83324  -0.23553  -0.17339
 218   47555.7    210.3     -0.00538  -0.00607   0.53738  -0.70068
 219   47555.8    210.3     -0.00077  -0.29239   0.66001   0.50862
 220   47624.1    210.0      0.00006  -0.00266  -0.05814   0.00649
 221   47624.2    210.0     -0.00002   0.05521  -0.00044   0.02027
 222   47624.2    210.0     -0.00034   0.01996  -0.00722  -0.05529
 223   47624.4    210.0     -0.00000   0.00442  -0.00033  -0.00123
 224   47624.4    210.0     -0.00001  -0.00136   0.00062   0.00399
 225   47637.0    209.9     -0.00001  -0.00012   0.00000   0.00003
 226   47637.0    209.9      0.00000   0.00002  -0.00015   0.00021
 227   47637.0    209.9      0.00000  -0.00018  -0.00005  -0.00001
 228   47811.7    209.2     -0.00000   0.00096  -0.00678  -0.00152
 229   47811.7    209.2     -0.00001  -0.00699  -0.00091  -0.00038
 230   47811.8    209.2      0.00003  -0.00020  -0.00156   0.00676
 231   48144.9    207.7      0.00000   0.00004  -0.00003   0.00002
 232   48144.9    207.7      0.00000   0.00002   0.00006  -0.00001
 233   48149.9    207.7     -0.00002  -0.00726   0.00241   0.00063
 234   48150.0    207.7     -0.00004   0.00106   0.00137   0.00749
 235   48150.0    207.7      0.00006  -0.00221  -0.00718   0.00161
 236   49287.1    202.9     -0.00001   0.00061   0.00020   0.00116
 237   49287.1    202.9      0.00000   0.00096  -0.00084  -0.00035
 238   49287.1    202.9     -0.00000  -0.00070  -0.00099   0.00052
 239   49290.2    202.9      0.00000   0.00001   0.00000  -0.00003
 240   49312.6    202.8      0.00000  -0.00001   0.00000  -0.00001
 241   49312.7    202.8      0.00000  -0.00003  -0.00001  -0.00000
 242   49314.8    202.8      0.00001  -0.00018  -0.00230   0.00124
 243   49314.9    202.8     -0.00000   0.00041   0.00119   0.00229
 244   49314.9    202.8      0.00000  -0.00257   0.00034   0.00029
 245   49492.1    202.1      0.00000   0.00001  -0.00039  -0.00006
 246   49492.2    202.1     -0.00000   0.00029  -0.00004   0.00028
 247   49492.2    202.1     -0.00000  -0.00028  -0.00006   0.00029
 248   49552.4    201.8      0.00000  -0.00000   0.00000  -0.00000
 249   49748.7    201.0     -0.00000  -0.00001   0.00006   0.00001
 250   49750.1    201.0      0.00001   0.00156  -0.00131  -0.00047
 251   49750.1    201.0      0.00000  -0.00138  -0.00157  -0.00021
 252   49750.1    201.0     -0.00000  -0.00025   0.00048  -0.00205
 253   50009.4    200.0      0.00048  -0.00001  -0.00012   0.00011
 254   50009.5    200.0     -0.00030  -0.00002  -0.00008  -0.00005
 255   50009.5    200.0      0.00048   0.00003  -0.00002   0.00006
 256   50030.8    199.9      0.00043  -0.14784  -0.06326   0.04927
 257   50030.9    199.9     -0.00074  -0.02302  -0.06551  -0.15318
 258   50030.9    199.9      0.00049  -0.07680   0.14138  -0.04893
 259   50411.3    198.4     -0.00001   0.00066   0.00019   0.00291
 260   50411.4    198.4      0.00001  -0.00082   0.00287  -0.00002
 261   50411.4    198.4      0.00001  -0.00281  -0.00079   0.00069
 262   50411.6    198.4     -0.00000   0.00005  -0.00034   0.00002
 263   50411.7    198.4     -0.00000  -0.00006  -0.00021  -0.00023
 264   51215.6    195.3     -0.00000  -0.00000  -0.00000   0.00001
 265   51218.1    195.2      0.00000   0.00057  -0.00014   0.00016
 266   51218.1    195.2     -0.00000   0.00000  -0.00045  -0.00041
 267   51218.1    195.2      0.00000  -0.00021  -0.00038   0.00042
 268   51707.1    193.4     -0.00000  -0.00000  -0.00000  -0.00000
 269   51707.1    193.4      0.00000   0.00000   0.00000  -0.00000
 270   51707.2    193.4     -0.00000   0.00000  -0.00000  -0.00000
 271   51714.4    193.4     -0.00000   0.00000   0.00000   0.00000
 272   51714.5    193.4      0.00000   0.00000  -0.00000  -0.00000
 273   51835.7    192.9     -0.00000  -0.00000  -0.00000  -0.00000
 274   51835.7    192.9     -0.00000  -0.00000   0.00000   0.00000
 275   51835.8    192.9      0.00000  -0.00000   0.00000   0.00000
 276   51840.7    192.9      0.00000  -0.00000  -0.00000  -0.00000
 277   53001.7    188.7     -0.00000   0.00000  -0.00000  -0.00000
 278   53001.7    188.7     -0.00000   0.00000   0.00000  -0.00000
 279   53001.7    188.7      0.00000  -0.00000  -0.00000  -0.00000
 280   53519.5    186.8     -0.00000  -0.00000  -0.00000  -0.00000
 281   53519.5    186.8     -0.00000   0.00000   0.00000   0.00000
 282   53519.6    186.8     -0.00000   0.00000   0.00000  -0.00000
 283   53521.5    186.8     -0.00000  -0.00000   0.00000  -0.00000
 284   53958.5    185.3      0.00000   0.00000  -0.00000   0.00000
 285   53958.5    185.3     -0.00000   0.00000  -0.00000  -0.00000
 286   53958.6    185.3      0.00000   0.00000   0.00000   0.00000
 287   53959.8    185.3      0.00000  -0.00000   0.00000  -0.00001
 288   53959.8    185.3      0.00000  -0.00000   0.00000  -0.00000
 289   53989.2    185.2      0.00000   0.00000   0.00000  -0.00000
 290   53989.2    185.2     -0.00000  -0.00000  -0.00000  -0.00000
 291   53989.3    185.2     -0.00000  -0.00000   0.00000  -0.00000
 292   54043.6    185.0     -0.00002   0.00000  -0.00000   0.00000
 293   54043.6    185.0     -0.00003  -0.00000   0.00000   0.00001
 294   54043.7    185.0      0.00002   0.00000   0.00000  -0.00000
 295   54080.2    184.9      0.00000  -0.00000  -0.00000  -0.00000
 296   54080.2    184.9     -0.00000  -0.00000  -0.00000   0.00000
 297   54080.3    184.9     -0.00000  -0.00000   0.00000   0.00000
 298   54085.5    184.9     -0.00000   0.00000  -0.00000   0.00001
 299   54100.2    184.8      0.00000   0.00000  -0.00000   0.00000
 300   54100.3    184.8     -0.00000  -0.00000  -0.00000  -0.00000
 301   54110.3    184.8     -0.00000  -0.00000   0.00000   0.00000
 302   54110.3    184.8     -0.00000  -0.00001  -0.00000  -0.00000
 303   54110.4    184.8     -0.00000   0.00000   0.00000  -0.00000
 304   54369.1    183.9      0.00000  -0.00000  -0.00000   0.00000
 305   54369.2    183.9      0.00000  -0.00000   0.00000  -0.00000
 306   54374.8    183.9      0.00000   0.00000  -0.00000  -0.00000
 307   54374.9    183.9      0.00000  -0.00000   0.00000  -0.00000
 308   54374.9    183.9     -0.00000   0.00000   0.00000   0.00000
 309   54577.1    183.2     -0.00000  -0.00001   0.00061  -0.00047
 310   54577.2    183.2      0.00000   0.00072  -0.00015  -0.00023
 311   54577.2    183.2      0.00000  -0.00028  -0.00044  -0.00057
 312   54728.6    182.7     -0.00000  -0.00001  -0.00000   0.00001
 313   54728.6    182.7      0.00000  -0.00000  -0.00000   0.00000
 314   54736.7    182.7      0.00000   0.00000  -0.00013   0.00005
 315   54736.8    182.7      0.00000  -0.00014  -0.00001  -0.00002
 316   54736.8    182.7     -0.00000   0.00003  -0.00005  -0.00013
 317   54838.4    182.4      0.00041  -0.00000   0.00000  -0.00000
 318   54838.5    182.4     -0.00005  -0.00000  -0.00000  -0.00000
 319   54838.5    182.4     -0.00020  -0.00000   0.00000  -0.00000
 320   55368.4    180.6      0.00000   0.00044  -0.00161  -0.00026
 321   55368.4    180.6     -0.00000  -0.00038  -0.00036   0.00160
 322   55368.4    180.6     -0.00000  -0.00158  -0.00036  -0.00046
 323   55373.9    180.6      0.00000  -0.00000  -0.00001   0.00000
 324   55533.6    180.1     -0.00000   0.00006   0.00002   0.00006
 325   55533.6    180.1     -0.00000  -0.00007   0.00003  -0.00006
 326   55534.1    180.1      0.00000   0.00180   0.00002  -0.00062
 327   55534.2    180.1      0.00000  -0.00026  -0.00169  -0.00083
 328   55534.2    180.1     -0.00000   0.00056  -0.00086   0.00160
 329   55590.3    179.9     -0.00001   0.00001   0.00001   0.00001
 330   55590.3    179.9      0.00000   0.00000  -0.00001   0.00000
 331   55590.3    179.9     -0.00001  -0.00001   0.00001  -0.00000
 332   56255.5    177.8     -0.00041   0.23348   0.29150   0.10525
 333   56255.5    177.8      0.00028   0.30869  -0.20697  -0.11152
 334   56255.5    177.8      0.00016   0.02763  -0.15083   0.35644
 335   56415.5    177.3     -0.00000  -0.00010  -0.00005  -0.00003
 336   56421.7    177.2     -0.00003   0.00495  -0.01291   0.00186
 337   56421.7    177.2     -0.00004   0.00610   0.00405   0.01192
 338   56421.7    177.2      0.00001   0.01156   0.00342  -0.00703
 339   56709.1    176.3     -0.00000   0.00072  -0.00217   0.00162
 340   56709.1    176.3     -0.00000   0.00223  -0.00051  -0.00162
 341   56709.2    176.3     -0.00000  -0.00153  -0.00173  -0.00159
 342   56807.9    176.0     -0.00000   0.00001   0.00000  -0.00001
 343   56808.0    176.0     -0.00000  -0.00002  -0.00002   0.00001
 344   56808.0    176.0      0.00000  -0.00001   0.00000  -0.00000
 345   56808.1    176.0      0.00000   0.00000   0.00001  -0.00001
 346   56958.1    175.6     -0.00000   0.00001   0.00000   0.00000
 347   56958.1    175.6      0.00000   0.00000  -0.00001  -0.00000
 348   56958.2    175.6      0.00000  -0.00001   0.00002   0.00000
 349   56959.0    175.6      0.00000  -0.00000   0.00001   0.00000
 350   56959.1    175.6     -0.00000  -0.00001  -0.00000   0.00001
 351   57029.9    175.3      0.00000  -0.00001   0.00000   0.00001
 352   57030.0    175.3      0.00000  -0.00000   0.00001   0.00000
 353   57033.2    175.3      0.00000   0.00008   0.00001  -0.00022
 354   57033.2    175.3      0.00000  -0.00003   0.00023  -0.00000
 355   57033.2    175.3      0.00000  -0.00021  -0.00003  -0.00009
 356   58476.6    171.0      0.00003   0.00000   0.00000  -0.00000
 357   58476.6    171.0     -0.00004   0.00000  -0.00000   0.00000
 358   58476.7    171.0      0.00000  -0.00000  -0.00000   0.00000
 359   58946.1    169.6      0.00000   0.00000   0.00000  -0.00000
 360   58951.6    169.6     -0.00000  -0.00000  -0.00001  -0.00000
 361   58951.6    169.6      0.00000   0.00000   0.00000   0.00000
 362   58951.7    169.6     -0.00000   0.00000  -0.00000  -0.00000
 363   58988.3    169.5      0.00000   0.00000   0.00000  -0.00000
 364   58988.4    169.5      0.00000  -0.00000   0.00000  -0.00000
 365   58994.3    169.5     -0.00000  -0.00000   0.00000  -0.00000
 366   58994.3    169.5      0.00000  -0.00000   0.00000   0.00000
 367   58994.4    169.5     -0.00000  -0.00000   0.00000   0.00000
 368   59079.3    169.3      0.00000   0.00000   0.00000   0.00000
 369   59079.3    169.3     -0.00000  -0.00000  -0.00000   0.00000
 370   59079.3    169.3     -0.00000  -0.00000  -0.00000  -0.00000
 371   59427.4    168.3      0.00000   0.00000  -0.00000  -0.00000
 372   59432.8    168.3     -0.00000  -0.00000   0.00000  -0.00000
 373   59432.8    168.3     -0.00000   0.00000  -0.00000   0.00000
 374   59432.8    168.3      0.00000  -0.00000   0.00000  -0.00000
 375   59528.5    168.0     -0.00000   0.00000   0.00000   0.00000
 376   59528.6    168.0     -0.00000  -0.00000  -0.00000   0.00000
 377   59529.0    168.0      0.00000   0.00000  -0.00000  -0.00000
 378   59529.0    168.0     -0.00000  -0.00000  -0.00000  -0.00000
 379   59529.0    168.0     -0.00000  -0.00000  -0.00000   0.00000
 380   59787.6    167.3     -0.00000  -0.00000  -0.00000   0.00000
 381   59787.6    167.3      0.00000   0.00001  -0.00000  -0.00000
 382   59787.6    167.3     -0.00000   0.00000  -0.00000  -0.00000
 383   59850.4    167.1     -0.00000   0.00001  -0.00000   0.00000
 384   59850.4    167.1     -0.00000   0.00000  -0.00000  -0.00001
 385   59858.6    167.1      0.00001  -0.00001  -0.00001  -0.00000
 386   59858.7    167.1     -0.00001   0.00001  -0.00001   0.00000
 387   59858.7    167.1     -0.00000  -0.00000   0.00000   0.00000
 388   60038.0    166.6      0.00006  -0.00000  -0.00000  -0.00001
 389   60038.0    166.6     -0.00003  -0.00000   0.00000  -0.00000
 390   60038.1    166.6      0.00012  -0.00001  -0.00000  -0.00000
 391   60066.9    166.5     -0.00000  -0.00000   0.00000  -0.00000
 392   60071.0    166.5     -0.00000  -0.00000   0.00000   0.00000
 393   60071.0    166.5      0.00000  -0.00000   0.00000   0.00000
 394   60071.1    166.5      0.00000   0.00000   0.00000  -0.00000
 395   60096.6    166.4      0.00000  -0.00000   0.00000   0.00001
 396   60096.7    166.4      0.00000  -0.00000   0.00000  -0.00001
 397   60101.1    166.4     -0.00000  -0.00000   0.00000   0.00000
 398   60101.1    166.4     -0.00000   0.00000   0.00000  -0.00000
 399   60101.2    166.4      0.00001   0.00000   0.00000  -0.00000
 400   60212.3    166.1      0.00000   0.00000  -0.00000   0.00001

Total run time:     2953.775 sec

           *** ORCA-CIS/TD-DFT FINISHED WITHOUT ERROR ***

Maximum memory used throughout the entire CIS-calculation: 2567.5 MB

-----------------------
CIS/TD-DFT TOTAL ENERGY
-----------------------

    E(SCF)  =  -2284.537106552 Eh
    DE(CIS) =      0.076319267 Eh (Root  1)
    ----------------------------- ---------
    E(tot)  =  -2284.460787285 Eh


-------------------------   --------------------
FINAL SINGLE POINT ENERGY     -2284.460787284505
-------------------------   --------------------


                            ***************************************
                            *     ORCA property calculations      *
                            ***************************************

                                    ---------------------
                                    Active property flags
                                    ---------------------
   (+) Dipole Moment


------------------------------------------------------------------------------
                       ORCA ELECTRIC PROPERTIES CALCULATION
------------------------------------------------------------------------------

Dipole Moment Calculation                       ... on
Quadrupole Moment Calculation                   ... off
Polarizability Calculation                      ... off
GBWName                                         ... UV_c60-Ih.gbw
Electron density                                ... UV_c60-Ih.scfp
The origin for moment calculation is the CENTER OF MASS  = ( 0.000000,  0.000000  0.000000)

-------------
DIPOLE MOMENT
-------------
                                X             Y             Z
Electronic contribution:      0.00001      -0.00001       0.00000
Nuclear contribution   :     -0.00000       0.00000      -0.00000
                        -----------------------------------------
Total Dipole Moment    :      0.00001      -0.00001       0.00000
                        -----------------------------------------
Magnitude (a.u.)       :      0.00001
Magnitude (Debye)      :      0.00004



--------------------
Rotational spectrum 
--------------------
 
Rotational constants in cm-1:     0.002776     0.002776     0.002776 
Rotational constants in MHz :    83.234504    83.234495    83.234493 

 Dipole components along the rotational axes: 
x,y,z [a.u.] :     0.000009    -0.000005    -0.000011 
x,y,z [Debye]:     0.000023    -0.000012    -0.000027 

 

Timings for individual modules:

Sum of individual times         ...     3085.790 sec (=  51.430 min)
GTO integral calculation        ...        3.523 sec (=   0.059 min)   0.1 %
SCF iterations                  ...      121.103 sec (=   2.018 min)   3.9 %
CIS module                      ...     2961.164 sec (=  49.353 min)  96.0 %
                             ****ORCA TERMINATED NORMALLY****
TOTAL RUN TIME: 0 days 0 hours 51 minutes 33 seconds 302 msec
