
                                 *****************
                                 * O   R   C   A *
                                 *****************

                                            #,                                       
                                            ###                                      
                                            ####                                     
                                            #####                                    
                                            ######                                   
                                           ########,                                 
                                     ,,################,,,,,                         
                               ,,#################################,,                 
                          ,,##########################################,,             
                       ,#########################################, ''#####,          
                    ,#############################################,,   '####,        
                  ,##################################################,,,,####,       
                ,###########''''           ''''###############################       
              ,#####''   ,,,,##########,,,,          '''####'''          '####       
            ,##' ,,,,###########################,,,                        '##       
           ' ,,###''''                  '''############,,,                           
         ,,##''                                '''############,,,,        ,,,,,,###''
      ,#''                                            '''#######################'''  
     '                                                          ''''####''''         
             ,#######,   #######,   ,#######,      ##                                
            ,#'     '#,  ##    ##  ,#'     '#,    #''#        ######   ,####,        
            ##       ##  ##   ,#'  ##            #'  '#       #        #'  '#        
            ##       ##  #######   ##           ,######,      #####,   #    #        
            '#,     ,#'  ##    ##  '#,     ,#' ,#      #,         ##   #,  ,#        
             '#######'   ##     ##  '#######'  #'      '#     #####' # '####'        



                  #######################################################
                  #                        -***-                        #
                  #          Department of theory and spectroscopy      #
                  #    Directorship and core code : Frank Neese         #
                  #        Max Planck Institute fuer Kohlenforschung    #
                  #                Kaiser Wilhelm Platz 1               #
                  #                 D-45470 Muelheim/Ruhr               #
                  #                      Germany                        #
                  #                                                     #
                  #                  All rights reserved                #
                  #                        -***-                        #
                  #######################################################


                         Program Version 5.0.2 -  RELEASE  -


 With contributions from (in alphabetic order):
   Daniel Aravena         : Magnetic Suceptibility
   Michael Atanasov       : Ab Initio Ligand Field Theory (pilot matlab implementation)
   Alexander A. Auer      : GIAO ZORA, VPT2 properties, NMR spectrum
   Ute Becker             : Parallelization
   Giovanni Bistoni       : ED, misc. LED, open-shell LED, HFLD
   Martin Brehm           : Molecular dynamics
   Dmytro Bykov           : SCF Hessian
   Vijay G. Chilkuri      : MRCI spin determinant printing, contributions to CSF-ICE
   Dipayan Datta          : RHF DLPNO-CCSD density
   Achintya Kumar Dutta   : EOM-CC, STEOM-CC
   Dmitry Ganyushin       : Spin-Orbit,Spin-Spin,Magnetic field MRCI
   Miquel Garcia          : C-PCM and meta-GGA Hessian, CC/C-PCM, Gaussian charge scheme
   Yang Guo               : DLPNO-NEVPT2, F12-NEVPT2, CIM, IAO-localization
   Andreas Hansen         : Spin unrestricted coupled pair/coupled cluster methods
   Benjamin Helmich-Paris : MC-RPA, TRAH-SCF, COSX integrals
   Lee Huntington         : MR-EOM, pCC
   Robert Izsak           : Overlap fitted RIJCOSX, COSX-SCS-MP3, EOM
   Marcus Kettner         : VPT2
   Christian Kollmar      : KDIIS, OOCD, Brueckner-CCSD(T), CCSD density, CASPT2, CASPT2-K
   Simone Kossmann        : Meta GGA functionals, TD-DFT gradient, OOMP2, MP2 Hessian
   Martin Krupicka        : Initial AUTO-CI
   Lucas Lang             : DCDCAS
   Marvin Lechner         : AUTO-CI (C++ implementation), FIC-MRCC
   Dagmar Lenk            : GEPOL surface, SMD
   Dimitrios Liakos       : Extrapolation schemes; Compound Job, initial MDCI parallelization
   Dimitrios Manganas     : Further ROCIS development; embedding schemes
   Dimitrios Pantazis     : SARC Basis sets
   Anastasios Papadopoulos: AUTO-CI, single reference methods and gradients
   Taras Petrenko         : DFT Hessian,TD-DFT gradient, ASA, ECA, R-Raman, ABS, FL, XAS/XES, NRVS
   Peter Pinski           : DLPNO-MP2, DLPNO-MP2 Gradient
   Christoph Reimann      : Effective Core Potentials
   Marius Retegan         : Local ZFS, SOC
   Christoph Riplinger    : Optimizer, TS searches, QM/MM, DLPNO-CCSD(T), (RO)-DLPNO pert. Triples
   Tobias Risthaus        : Range-separated hybrids, TD-DFT gradient, RPA, STAB
   Michael Roemelt        : Original ROCIS implementation
   Masaaki Saitow         : Open-shell DLPNO-CCSD energy and density
   Barbara Sandhoefer     : DKH picture change effects
   Avijit Sen             : IP-ROCIS
   Kantharuban Sivalingam : CASSCF convergence, NEVPT2, FIC-MRCI
   Bernardo de Souza      : ESD, SOC TD-DFT
   Georgi Stoychev        : AutoAux, RI-MP2 NMR, DLPNO-MP2 response
   Willem Van den Heuvel  : Paramagnetic NMR
   Boris Wezisla          : Elementary symmetry handling
   Frank Wennmohs         : Technical directorship


 We gratefully acknowledge several colleagues who have allowed us to
 interface, adapt or use parts of their codes:
   Stefan Grimme, W. Hujo, H. Kruse, P. Pracht,  : VdW corrections, initial TS optimization,
                  C. Bannwarth, S. Ehlert          DFT functionals, gCP, sTDA/sTD-DF
   Ed Valeev, F. Pavosevic, A. Kumar             : LibInt (2-el integral package), F12 methods
   Garnet Chan, S. Sharma, J. Yang, R. Olivares  : DMRG
   Ulf Ekstrom                                   : XCFun DFT Library
   Mihaly Kallay                                 : mrcc  (arbitrary order and MRCC methods)
   Jiri Pittner, Ondrej Demel                    : Mk-CCSD
   Frank Weinhold                                : gennbo (NPA and NBO analysis)
   Christopher J. Cramer and Donald G. Truhlar   : smd solvation model
   Lars Goerigk                                  : TD-DFT with DH, B97 family of functionals
   V. Asgeirsson, H. Jonsson                     : NEB implementation
   FAccTs GmbH                                   : IRC, NEB, NEB-TS, DLPNO-Multilevel, CI-OPT
                                                   MM, QMMM, 2- and 3-layer-ONIOM, Crystal-QMMM,
                                                   LR-CPCM, SF, NACMEs, symmetry and pop. for TD-DFT,
                                                   nearIR, NL-DFT gradient (VV10), updates on ESD,
                                                   ML-optimized integration grids
   S Lehtola, MJT Oliveira, MAL Marques          : LibXC Library
   Liviu Ungur et al                             : ANISO software


 Your calculation uses the libint2 library for the computation of 2-el integrals
 For citations please refer to: http://libint.valeyev.net

 Your ORCA version has been built with support for libXC version: 5.1.0
 For citations please refer to: https://tddft.org/programs/libxc/

 This ORCA versions uses:
   CBLAS   interface :  Fast vector & matrix operations
   LAPACKE interface :  Fast linear algebra routines
   SCALAPACK package :  Parallel linear algebra routines
   Shared memory     :  Shared parallel matrices
   BLAS/LAPACK       :  OpenBLAS 0.3.15  USE64BITINT DYNAMIC_ARCH NO_AFFINITY Zen SINGLE_THREADED
        Core in use  :  Zen
   Copyright (c) 2011-2014, The OpenBLAS Project




***************************************
The coordinates will be read from file: OPT_c70-D5h.xyz
***************************************


================================================================================

----- Orbital basis set information -----
Your calculation utilizes the basis: def2-SVP
   F. Weigend and R. Ahlrichs, Phys. Chem. Chem. Phys. 7, 3297 (2005).

----- AuxJ basis set information -----
Your calculation utilizes the auxiliary basis: def2/J
   F. Weigend, Phys. Chem. Chem. Phys. 8, 1057 (2006).

================================================================================
                                        WARNINGS
                       Please study these warnings very carefully!
================================================================================

INFO   : Checking CIS options ...

WARNING: CIS/ROCIS methods need fully converged wavefunctions
  ===> : Setting SCFConvForced true
         You can overwrite this default with %scf ConvForced false 


INFO   : the flag for use of the SHARK integral package has been found!

================================================================================
                                       INPUT FILE
================================================================================
NAME = UV_c70-D5h.inp
|  1> ! B3LYP/G def2-SVP TightSCF #UseSym
|  2> # DFT functional:   B3LYP/G
|  3> # Basis:            def2-SVP
|  4> %maxcore 3000
|  5> %pal nprocs 64
|  6> end
|  7> %base "UV_c70-D5h"
|  8> %cpcm
|  9>         epsilon 2.02
| 10>         refrac  1.4266
| 11> end
| 12> %tddft
| 13>         TDA     True
| 14>         maxdim  10   # Davidson expansion space = MaxDim * nroots
| 15>                      # Use MaxDim 5-10 for favorable convergence
| 16>         nroots  400  # Setting the number of roots (transitions)
| 17>                      # to be calculated
| 18> end
| 19> *xyzfile 0 1 OPT_c70-D5h.xyz
| 20> 
| 21>                          ****END OF INPUT****
================================================================================

                       ****************************
                       * Single Point Calculation *
                       ****************************

---------------------------------
CARTESIAN COORDINATES (ANGSTROEM)
---------------------------------
  C     -1.175695   -3.975332    0.381950
  C      0.000000   -3.975688    1.236218
  C      1.175695   -3.975332    0.381950
  C      0.726650   -3.975167   -1.000104
  C     -0.726650   -3.975167   -1.000104
  C      0.000000   -3.226564    2.418921
  C      1.165176   -2.446416    2.787165
  C      2.290988   -2.446121    1.969156
  C      2.300499   -3.226257    0.747420
  C      3.011059   -2.446167   -0.246493
  C      2.580443   -2.445736   -1.569752
  C      1.421692   -3.225650   -1.956537
  C      0.695851   -2.445983   -2.939693
  C     -0.695851   -2.445983   -2.939693
  C     -1.421692   -3.225650   -1.956537
  C     -2.580443   -2.445736   -1.569752
  C     -3.011059   -2.446167   -0.246494
  C     -2.300499   -3.226257    0.747420
  C     -2.290988   -2.446121    1.969155
  C     -1.165176   -2.446416    2.787165
  C     -3.453616   -1.208412    0.367346
  C     -3.010304   -1.208542    1.733072
  C      0.717933   -1.208324    3.396973
  C     -0.717933   -1.208324    3.396973
  C     -2.578427   -1.208356   -2.327180
  C     -1.416693   -1.208410   -3.171227
  C      1.416693   -1.208410   -3.171227
  C      2.578427   -1.208356   -2.327180
  C      3.453616   -1.208412    0.367347
  C      3.010304   -1.208542    1.733072
  C      2.648453   -0.000000    2.392556
  C      1.456995   -0.000000    3.256966
  C     -1.456995   -0.000000    3.256965
  C     -2.648453   -0.000000    2.392555
  C     -3.548353    0.000000   -0.378954
  C     -3.093407    0.000000   -1.778798
  C      0.735889    0.000000   -3.491095
  C     -0.735889    0.000000   -3.491095
  C      3.548353   -0.000000   -0.378954
  C      3.093407    0.000000   -1.778798
  C      3.010304    1.208542    1.733072
  C      3.453616    1.208412    0.367346
  C     -0.717933    1.208323    3.396973
  C      0.717933    1.208323    3.396973
  C     -3.010304    1.208542    1.733072
  C     -3.453616    1.208412    0.367346
  C      2.578427    1.208356   -2.327180
  C      1.416693    1.208410   -3.171228
  C     -1.416693    1.208410   -3.171227
  C     -2.578427    1.208356   -2.327180
  C     -2.580443    2.445736   -1.569752
  C     -3.011059    2.446167   -0.246494
  C     -2.290988    2.446121    1.969155
  C     -1.165176    2.446415    2.787165
  C      1.165176    2.446415    2.787165
  C      2.290988    2.446121    1.969155
  C      3.011059    2.446167   -0.246494
  C      2.580443    2.445736   -1.569752
  C     -0.695851    2.445983   -2.939693
  C      0.695851    2.445983   -2.939693
  C      2.300500    3.226257    0.747420
  C      1.421692    3.225650   -1.956537
  C     -1.421692    3.225650   -1.956537
  C     -2.300499    3.226257    0.747420
  C     -0.000000    3.226564    2.418920
  C     -1.175695    3.975332    0.381950
  C     -0.000000    3.975688    1.236218
  C      1.175695    3.975332    0.381950
  C     -0.726650    3.975167   -1.000104
  C      0.726650    3.975167   -1.000104

----------------------------
CARTESIAN COORDINATES (A.U.)
----------------------------
  NO LB      ZA    FRAG     MASS         X           Y           Z
   0 C     6.0000    0    12.011   -2.221741   -7.512289    0.721781
   1 C     6.0000    0    12.011    0.000000   -7.512962    2.336113
   2 C     6.0000    0    12.011    2.221741   -7.512289    0.721781
   3 C     6.0000    0    12.011    1.373169   -7.511976   -1.889923
   4 C     6.0000    0    12.011   -1.373169   -7.511977   -1.889923
   5 C     6.0000    0    12.011    0.000000   -6.097322    4.571098
   6 C     6.0000    0    12.011    2.201864   -4.623055    5.266979
   7 C     6.0000    0    12.011    4.329340   -4.622499    3.721165
   8 C     6.0000    0    12.011    4.347314   -6.096742    1.412419
   9 C     6.0000    0    12.011    5.690077   -4.622585   -0.465805
  10 C     6.0000    0    12.011    4.876331   -4.621770   -2.966401
  11 C     6.0000    0    12.011    2.686609   -6.095594   -3.697319
  12 C     6.0000    0    12.011    1.314968   -4.622238   -5.555215
  13 C     6.0000    0    12.011   -1.314969   -4.622238   -5.555215
  14 C     6.0000    0    12.011   -2.686609   -6.095595   -3.697319
  15 C     6.0000    0    12.011   -4.876331   -4.621771   -2.966401
  16 C     6.0000    0    12.011   -5.690078   -4.622585   -0.465805
  17 C     6.0000    0    12.011   -4.347314   -6.096742    1.412418
  18 C     6.0000    0    12.011   -4.329339   -4.622499    3.721164
  19 C     6.0000    0    12.011   -2.201864   -4.623055    5.266978
  20 C     6.0000    0    12.011   -6.526388   -2.283568    0.694184
  21 C     6.0000    0    12.011   -5.688650   -2.283813    3.275031
  22 C     6.0000    0    12.011    1.356697   -2.283401    6.419349
  23 C     6.0000    0    12.011   -1.356697   -2.283401    6.419349
  24 C     6.0000    0    12.011   -4.872520   -2.283462   -4.397733
  25 C     6.0000    0    12.011   -2.677162   -2.283564   -5.992751
  26 C     6.0000    0    12.011    2.677162   -2.283564   -5.992751
  27 C     6.0000    0    12.011    4.872520   -2.283462   -4.397733
  28 C     6.0000    0    12.011    6.526388   -2.283568    0.694184
  29 C     6.0000    0    12.011    5.688650   -2.283813    3.275031
  30 C     6.0000    0    12.011    5.004852   -0.000000    4.521275
  31 C     6.0000    0    12.011    2.753321   -0.000000    6.154773
  32 C     6.0000    0    12.011   -2.753321   -0.000000    6.154772
  33 C     6.0000    0    12.011   -5.004852   -0.000000    4.521274
  34 C     6.0000    0    12.011   -6.705415    0.000000   -0.716119
  35 C     6.0000    0    12.011   -5.845692    0.000000   -3.361441
  36 C     6.0000    0    12.011    1.390629    0.000000   -6.597213
  37 C     6.0000    0    12.011   -1.390629    0.000000   -6.597213
  38 C     6.0000    0    12.011    6.705415   -0.000000   -0.716119
  39 C     6.0000    0    12.011    5.845692    0.000000   -3.361441
  40 C     6.0000    0    12.011    5.688650    2.283813    3.275031
  41 C     6.0000    0    12.011    6.526388    2.283568    0.694184
  42 C     6.0000    0    12.011   -1.356697    2.283400    6.419348
  43 C     6.0000    0    12.011    1.356697    2.283400    6.419349
  44 C     6.0000    0    12.011   -5.688650    2.283813    3.275031
  45 C     6.0000    0    12.011   -6.526388    2.283568    0.694184
  46 C     6.0000    0    12.011    4.872520    2.283462   -4.397733
  47 C     6.0000    0    12.011    2.677162    2.283565   -5.992751
  48 C     6.0000    0    12.011   -2.677163    2.283565   -5.992751
  49 C     6.0000    0    12.011   -4.872520    2.283462   -4.397733
  50 C     6.0000    0    12.011   -4.876331    4.621771   -2.966401
  51 C     6.0000    0    12.011   -5.690078    4.622586   -0.465805
  52 C     6.0000    0    12.011   -4.329340    4.622498    3.721164
  53 C     6.0000    0    12.011   -2.201864    4.623055    5.266978
  54 C     6.0000    0    12.011    2.201864    4.623055    5.266978
  55 C     6.0000    0    12.011    4.329340    4.622498    3.721164
  56 C     6.0000    0    12.011    5.690078    4.622585   -0.465806
  57 C     6.0000    0    12.011    4.876331    4.621771   -2.966401
  58 C     6.0000    0    12.011   -1.314969    4.622238   -5.555215
  59 C     6.0000    0    12.011    1.314969    4.622239   -5.555216
  60 C     6.0000    0    12.011    4.347314    6.096741    1.412418
  61 C     6.0000    0    12.011    2.686609    6.095595   -3.697320
  62 C     6.0000    0    12.011   -2.686609    6.095595   -3.697319
  63 C     6.0000    0    12.011   -4.347314    6.096742    1.412418
  64 C     6.0000    0    12.011   -0.000000    6.097321    4.571097
  65 C     6.0000    0    12.011   -2.221741    7.512289    0.721781
  66 C     6.0000    0    12.011   -0.000000    7.512962    2.336113
  67 C     6.0000    0    12.011    2.221741    7.512289    0.721780
  68 C     6.0000    0    12.011   -1.373169    7.511977   -1.889923
  69 C     6.0000    0    12.011    1.373169    7.511977   -1.889923

--------------------------------
INTERNAL COORDINATES (ANGSTROEM)
--------------------------------
 C      0   0   0     0.000000000000     0.00000000     0.00000000
 C      1   0   0     1.453283137960     0.00000000     0.00000000
 C      2   1   0     1.453283103943   107.99516845     0.00000000
 C      3   2   1     1.453173927170   108.00283978     0.00000000
 C      1   2   3     1.453173884272   108.00284495     0.00000000
 C      2   1   3     1.399990680103   119.76572272   141.91517297
 C      6   2   1     1.449783036488   120.16672321   222.88839675
 C      7   6   2     1.391614669106   120.06566608   359.62627329
 C      3   2   1     1.399952796226   119.77979835   141.93100957
 C      9   3   2     1.449585799983   120.18489607   222.85388742
 C     10   9   3     1.391561147439   120.03174906   359.65279112
 C      4   3   2     1.399865808896   119.76404249   141.93533912
 C     12   4   3     1.449593385488   120.18236163   222.83842326
 C     13  12   4     1.391702835996   120.04766329   359.66769308
 C      5   1   2     1.399865833753   119.76404305   218.06465756
 C     15   5   1     1.449335209474   120.18174589     0.36831153
 C     16  15   5     1.391561128663   120.06688373   359.60147194
 C      1   2   3     1.399952781942   119.77979703   218.06899392
 C     18   1   2     1.449600175127   120.17958087     0.39989252
 C     19  18   1     1.391614644149   120.04026344   359.60110788
 C     17  16  15     1.450755858749   119.76756300   139.02401021
 C     21  17  16     1.435872910299   107.95002909   217.41278551
 C      7   6   2     1.450780543690   108.55585874   142.68115522
 C     23   7   6     1.435865899821   107.95546277   359.40128991
 C     16  15   5     1.450796303950   108.57349772   142.78243564
 C     25  16  15     1.435980434530   107.93643218   359.35415925
 C     13  12   4     1.450795484082   108.55746457   142.76701584
 C     27  13  12     1.435980479989   107.95049675   359.39392565
 C     10   9   3     1.450755878905   108.57554592   142.71262142
 C     29  10   9     1.435872968421   107.95002878   359.41339537
 C     30  29  10     1.423526686039   121.26819152   212.88530180
 C     23   7   6     1.423327226446   121.53813176   212.33382002
 C     24  23   7     1.423327204919   121.28191980   212.83138542
 C     22  21  17     1.423526654772   121.26818984   147.11471123
 C     21  17  16     1.423446048768   121.51750984     4.44650001
 C     25  16  15     1.423394713390   121.49374066   212.39442182
 C     27  13  12     1.423399078856   121.49390213   212.43445515
 C     26  25  16     1.423399068055   121.26548052   212.97433519
 C     29  10   9     1.423446073345   121.51750069   212.37969112
 C     28  27  13     1.423394678084   121.27755344   212.93036355
 C     31  30  29     1.423526749905   116.20123525   347.37221014
 C     39  29  10     1.423446012805   116.19187279   155.32337367
 C     33  24  23     1.423327151688   116.19375538   347.42067741
 C     32  23   7     1.423327158732   116.19375332   155.33982037
 C     34  22  21     1.423526702613   116.20124036    12.62778828
 C     35  21  17     1.423446028420   116.19187733   204.67661511
 C     40  28  27     1.423394751154   116.19000278   347.33617077
 C     37  27  13     1.423399092793   116.19768024   155.34331369
 C     38  26  25     1.423399061636   116.19768441   347.29680297
 C     36  25  16     1.423394698670   116.19000498   155.29519066
 C     50  36  25     1.450796348141   121.49373902   204.70481143
 C     51  50  36     1.391561121897   119.81140253     4.31467955
 C     45  34  22     1.450776542417   121.51996968   204.71397078
 C     53  45  34     1.391614596715   119.79823430     4.38387149
 C     44  32  23     1.450780571860   121.53813236   204.66017794
 C     55  44  32     1.391614621334   119.75493330     4.47717435
 C     42  39  29     1.450755955193   121.51750219   204.67662795
 C     57  42  39     1.391561168796   119.76757402     4.44648562
 C     49  38  26     1.450795529414   121.49389708   155.34330185
 C     59  49  38     1.391702900212   119.79246085   355.64385385
 C     57  42  39     1.449585767355   108.57554077   147.62030115
 C     58  57  42     1.449335281869   120.06688739   139.02401214
 C     51  50  36     1.449335254498   108.57349615   147.60557605
 C     52  51  50     1.449585795070   120.03174402   139.06181707
 C     54  53  45     1.449782952860   120.06566895   139.04809417
 C     64  52  51     1.399952797511   120.18490080   359.65279754
 C     65  54  53     1.399990607357   120.16672621   359.62627136
 C     61  57  42     1.399952799706   120.18489803   217.28737755
 C     63  51  50     1.399865805100   120.18174852   217.21756375
 C     62  58  57     1.399865804019   120.18174272   359.60147410

---------------------------
INTERNAL COORDINATES (A.U.)
---------------------------
 C      0   0   0     0.000000000000     0.00000000     0.00000000
 C      1   0   0     2.746307125790     0.00000000     0.00000000
 C      2   1   0     2.746307061508   107.99516845     0.00000000
 C      3   2   1     2.746100747307   108.00283978     0.00000000
 C      1   2   3     2.746100666241   108.00284495     0.00000000
 C      2   1   3     2.645598975436   119.76572272   141.91517297
 C      6   2   1     2.739692892567   120.16672321   222.88839675
 C      7   6   2     2.629770608557   120.06566608   359.62627329
 C      3   2   1     2.645527385284   119.77979835   141.93100957
 C      9   3   2     2.739320169589   120.18489607   222.85388742
 C     10   9   3     2.629669467265   120.03174906   359.65279112
 C      4   3   2     2.645363003053   119.76404249   141.93533912
 C     12   4   3     2.739334504116   120.18236163   222.83842326
 C     13  12   4     2.629937219834   120.04766329   359.66769308
 C      5   1   2     2.645363050027   119.76404305   218.06465756
 C     15   5   1     2.738846622156   120.18174589     0.36831153
 C     16  15   5     2.629669431783   120.06688373   359.60147194
 C      1   2   3     2.645527358292   119.77979703   218.06899392
 C     18   1   2     2.739347334674   120.17958087     0.39989252
 C     19  18   1     2.629770561396   120.04026344   359.60110788
 C     17  16  15     2.741531260218   119.76756300   139.02401021
 C     21  17  16     2.713406563581   107.95002909   217.41278551
 C      7   6   2     2.741577907995   108.55585874   142.68115522
 C     23   7   6     2.713393315699   107.95546277   359.40128991
 C     16  15   5     2.741607690571   108.57349772   142.78243564
 C     25  16  15     2.713609754931   107.93643218   359.35415925
 C     13  12   4     2.741606141244   108.55746457   142.76701584
 C     27  13  12     2.713609840837   107.95049675   359.39392565
 C     10   9   3     2.741531298307   108.57554592   142.71262142
 C     29  10   9     2.713406673417   107.95002878   359.41339537
 C     30  29  10     2.690075580942   121.26819152   212.88530180
 C     23   7   6     2.689698656936   121.53813176   212.33382002
 C     24  23   7     2.689698616256   121.28191980   212.83138542
 C     22  21  17     2.690075521855   121.26818984   147.11471123
 C     21  17  16     2.689923198583   121.51750984     4.44650001
 C     25  16  15     2.689826188778   121.49374066   212.39442182
 C     27  13  12     2.689834438313   121.49390213   212.43445515
 C     26  25  16     2.689834417902   121.26548052   212.97433519
 C     29  10   9     2.689923245027   121.51750069   212.37969112
 C     28  27  13     2.689826122060   121.27755344   212.93036355
 C     31  30  29     2.690075701631   116.20123525   347.37221014
 C     39  29  10     2.689923130623   116.19187279   155.32337367
 C     33  24  23     2.689698515665   116.19375538   347.42067741
 C     32  23   7     2.689698528975   116.19375332   155.33982037
 C     34  22  21     2.690075612262   116.20124036    12.62778828
 C     35  21  17     2.689923160131   116.19187733   204.67661511
 C     40  28  27     2.689826260142   116.19000278   347.33617077
 C     37  27  13     2.689834464650   116.19768024   155.34331369
 C     38  26  25     2.689834405772   116.19768441   347.29680297
 C     36  25  16     2.689826160962   116.19000498   155.29519066
 C     50  36  25     2.741607774079   121.49373902   204.70481143
 C     51  50  36     2.629669418998   119.81140253     4.31467955
 C     45  34  22     2.741570346685   121.51996968   204.71397078
 C     53  45  34     2.629770471758   119.79823430     4.38387149
 C     44  32  23     2.741577961228   121.53813236   204.66017794
 C     55  44  32     2.629770518282   119.75493330     4.47717435
 C     42  39  29     2.741531442470   121.51750219   204.67662795
 C     57  42  39     2.629669507623   119.76757402     4.44648562
 C     49  38  26     2.741606226911   121.49389708   155.34330185
 C     59  49  38     2.629937341185   119.79246085   355.64385385
 C     57  42  39     2.739320107931   108.57554077   147.62030115
 C     58  57  42     2.738846758961   120.06688739   139.02401214
 C     51  50  36     2.738846707238   108.57349615   147.60557605
 C     52  51  50     2.739320160304   120.03174402   139.06181707
 C     54  53  45     2.739692734533   120.06566895   139.04809417
 C     64  52  51     2.645527387714   120.18490080   359.65279754
 C     65  54  53     2.645598837966   120.16672621   359.62627136
 C     61  57  42     2.645527391861   120.18489803   217.28737755
 C     63  51  50     2.645362995880   120.18174852   217.21756375
 C     62  58  57     2.645362993837   120.18174272   359.60147410

---------------------
BASIS SET INFORMATION
---------------------
There are 1 groups of distinct atoms

 Group   1 Type C   : 7s4p1d contracted to 3s2p1d pattern {511/31/1}

Atom   0C    basis set group =>   1
Atom   1C    basis set group =>   1
Atom   2C    basis set group =>   1
Atom   3C    basis set group =>   1
Atom   4C    basis set group =>   1
Atom   5C    basis set group =>   1
Atom   6C    basis set group =>   1
Atom   7C    basis set group =>   1
Atom   8C    basis set group =>   1
Atom   9C    basis set group =>   1
Atom  10C    basis set group =>   1
Atom  11C    basis set group =>   1
Atom  12C    basis set group =>   1
Atom  13C    basis set group =>   1
Atom  14C    basis set group =>   1
Atom  15C    basis set group =>   1
Atom  16C    basis set group =>   1
Atom  17C    basis set group =>   1
Atom  18C    basis set group =>   1
Atom  19C    basis set group =>   1
Atom  20C    basis set group =>   1
Atom  21C    basis set group =>   1
Atom  22C    basis set group =>   1
Atom  23C    basis set group =>   1
Atom  24C    basis set group =>   1
Atom  25C    basis set group =>   1
Atom  26C    basis set group =>   1
Atom  27C    basis set group =>   1
Atom  28C    basis set group =>   1
Atom  29C    basis set group =>   1
Atom  30C    basis set group =>   1
Atom  31C    basis set group =>   1
Atom  32C    basis set group =>   1
Atom  33C    basis set group =>   1
Atom  34C    basis set group =>   1
Atom  35C    basis set group =>   1
Atom  36C    basis set group =>   1
Atom  37C    basis set group =>   1
Atom  38C    basis set group =>   1
Atom  39C    basis set group =>   1
Atom  40C    basis set group =>   1
Atom  41C    basis set group =>   1
Atom  42C    basis set group =>   1
Atom  43C    basis set group =>   1
Atom  44C    basis set group =>   1
Atom  45C    basis set group =>   1
Atom  46C    basis set group =>   1
Atom  47C    basis set group =>   1
Atom  48C    basis set group =>   1
Atom  49C    basis set group =>   1
Atom  50C    basis set group =>   1
Atom  51C    basis set group =>   1
Atom  52C    basis set group =>   1
Atom  53C    basis set group =>   1
Atom  54C    basis set group =>   1
Atom  55C    basis set group =>   1
Atom  56C    basis set group =>   1
Atom  57C    basis set group =>   1
Atom  58C    basis set group =>   1
Atom  59C    basis set group =>   1
Atom  60C    basis set group =>   1
Atom  61C    basis set group =>   1
Atom  62C    basis set group =>   1
Atom  63C    basis set group =>   1
Atom  64C    basis set group =>   1
Atom  65C    basis set group =>   1
Atom  66C    basis set group =>   1
Atom  67C    basis set group =>   1
Atom  68C    basis set group =>   1
Atom  69C    basis set group =>   1
---------------------------------
AUXILIARY/J BASIS SET INFORMATION
---------------------------------
There are 1 groups of distinct atoms

 Group   1 Type C   : 12s5p4d2f1g contracted to 6s4p3d1f1g pattern {711111/2111/211/2/1}

Atom   0C    basis set group =>   1
Atom   1C    basis set group =>   1
Atom   2C    basis set group =>   1
Atom   3C    basis set group =>   1
Atom   4C    basis set group =>   1
Atom   5C    basis set group =>   1
Atom   6C    basis set group =>   1
Atom   7C    basis set group =>   1
Atom   8C    basis set group =>   1
Atom   9C    basis set group =>   1
Atom  10C    basis set group =>   1
Atom  11C    basis set group =>   1
Atom  12C    basis set group =>   1
Atom  13C    basis set group =>   1
Atom  14C    basis set group =>   1
Atom  15C    basis set group =>   1
Atom  16C    basis set group =>   1
Atom  17C    basis set group =>   1
Atom  18C    basis set group =>   1
Atom  19C    basis set group =>   1
Atom  20C    basis set group =>   1
Atom  21C    basis set group =>   1
Atom  22C    basis set group =>   1
Atom  23C    basis set group =>   1
Atom  24C    basis set group =>   1
Atom  25C    basis set group =>   1
Atom  26C    basis set group =>   1
Atom  27C    basis set group =>   1
Atom  28C    basis set group =>   1
Atom  29C    basis set group =>   1
Atom  30C    basis set group =>   1
Atom  31C    basis set group =>   1
Atom  32C    basis set group =>   1
Atom  33C    basis set group =>   1
Atom  34C    basis set group =>   1
Atom  35C    basis set group =>   1
Atom  36C    basis set group =>   1
Atom  37C    basis set group =>   1
Atom  38C    basis set group =>   1
Atom  39C    basis set group =>   1
Atom  40C    basis set group =>   1
Atom  41C    basis set group =>   1
Atom  42C    basis set group =>   1
Atom  43C    basis set group =>   1
Atom  44C    basis set group =>   1
Atom  45C    basis set group =>   1
Atom  46C    basis set group =>   1
Atom  47C    basis set group =>   1
Atom  48C    basis set group =>   1
Atom  49C    basis set group =>   1
Atom  50C    basis set group =>   1
Atom  51C    basis set group =>   1
Atom  52C    basis set group =>   1
Atom  53C    basis set group =>   1
Atom  54C    basis set group =>   1
Atom  55C    basis set group =>   1
Atom  56C    basis set group =>   1
Atom  57C    basis set group =>   1
Atom  58C    basis set group =>   1
Atom  59C    basis set group =>   1
Atom  60C    basis set group =>   1
Atom  61C    basis set group =>   1
Atom  62C    basis set group =>   1
Atom  63C    basis set group =>   1
Atom  64C    basis set group =>   1
Atom  65C    basis set group =>   1
Atom  66C    basis set group =>   1
Atom  67C    basis set group =>   1
Atom  68C    basis set group =>   1
Atom  69C    basis set group =>   1


           ************************************************************
           *        Program running with 64 parallel MPI-processes    *
           *              working on a common directory               *
           ************************************************************
------------------------------------------------------------------------------
                           ORCA GTO INTEGRAL CALCULATION
                           -- RI-GTO INTEGRALS CHOSEN --
------------------------------------------------------------------------------
------------------------------------------------------------------------------
                   ___                                                        
                  /   \      - P O W E R E D   B Y -                         
                 /     \                                                     
                 |  |  |   _    _      __       _____    __    __             
                 |  |  |  | |  | |    /  \     |  _  \  |  |  /  |          
                  \  \/   | |  | |   /    \    | | | |  |  | /  /          
                 / \  \   | |__| |  /  /\  \   | |_| |  |  |/  /          
                |  |  |   |  __  | /  /__\  \  |    /   |      \           
                |  |  |   | |  | | |   __   |  |    \   |  |\   \          
                \     /   | |  | | |  |  |  |  | |\  \  |  | \   \       
                 \___/    |_|  |_| |__|  |__|  |_| \__\ |__|  \__/        
                                                                              
                      - O R C A' S   B I G   F R I E N D -                    
                                      &                                       
                       - I N T E G R A L  F E E D E R -                       
                                                                              
 v1 FN, 2020, v2 2021                                                         
------------------------------------------------------------------------------


Reading SHARK input file UV_c70-D5h.SHARKINP.tmp ... ok
----------------------
SHARK INTEGRAL PACKAGE
----------------------

Number of atoms                             ...     70
Number of basis functions                   ...    980
Number of shells                            ...    420
Maximum angular momentum                    ...      2
Integral batch strategy                     ... SHARK/LIBINT Hybrid
RI-J (if used) integral strategy            ... SPLIT-RIJ (Revised 2003 algorithm where possible)
Printlevel                                  ...      1
Contraction scheme used                     ... SEGMENTED contraction
Coulomb Range Separation                    ... NOT USED
Exchange Range Separation                   ... NOT USED
Finite Nucleus Model                        ... NOT USED
Auxiliary Coulomb fitting basis             ... AVAILABLE
   # of basis functions in Aux-J            ...   3430
   # of shells in Aux-J                     ...   1050
   Maximum angular momentum in Aux-J        ...      4
Auxiliary J/K fitting basis                 ... NOT available
Auxiliary Correlation fitting basis         ... NOT available
Auxiliary 'external' fitting basis          ... NOT available
Integral threshold                          ...     2.500000e-11
Primitive cut-off                           ...     2.500000e-12
Primitive pair pre-selection threshold      ...     2.500000e-12

Calculating pre-screening integrals         ... done (  0.0 sec) Dimension = 420
Organizing shell pair data                  ... done (  0.5 sec)
Shell pair information
Total number of shell pairs                 ...     88410
Shell pairs after pre-screening             ...     63561
Total number of primitive shell pairs       ...    354130
Primitive shell pairs kept                  ...    145856
          la=0 lb=0:  15245 shell pairs
          la=1 lb=0:  23168 shell pairs
          la=1 lb=1:   8668 shell pairs
          la=2 lb=0:   8326 shell pairs
          la=2 lb=1:   7114 shell pairs
          la=2 lb=2:   1040 shell pairs

Calculating one electron integrals          ... done (  0.1 sec)
Calculating RI/J V-Matrix + Cholesky decomp.... done (  1.4 sec)
Calculating Nuclear repulsion               ... done (  0.0 sec) ENN=  10606.040169561431 Eh

SHARK setup successfully completed in   2.7 seconds

Maximum memory used throughout the entire GTOINT-calculation: 96.0 MB
[1661217855.651091] [nc30255:707257:0]          mpool.c:42   UCX  WARN  object 0xb443e80 was not returned to mpool ucp_requests
[1661217855.651112] [nc30255:707257:0]          mpool.c:42   UCX  WARN  object 0xb444040 was not returned to mpool ucp_requests
[1661217855.651116] [nc30255:707257:0]          mpool.c:42   UCX  WARN  object 0xb444200 was not returned to mpool ucp_requests
[1661217855.651119] [nc30255:707257:0]          mpool.c:42   UCX  WARN  object 0xb4443c0 was not returned to mpool ucp_requests
[1661217855.651121] [nc30255:707257:0]          mpool.c:42   UCX  WARN  object 0xb444580 was not returned to mpool ucp_requests
[1661217855.651125] [nc30255:707257:0]          mpool.c:42   UCX  WARN  object 0xb444740 was not returned to mpool ucp_requests
[1661217855.651127] [nc30255:707257:0]          mpool.c:42   UCX  WARN  object 0xb444900 was not returned to mpool ucp_requests
[1661217855.651130] [nc30255:707257:0]          mpool.c:42   UCX  WARN  object 0xb444ac0 was not returned to mpool ucp_requests
[1661217855.651132] [nc30255:707257:0]          mpool.c:42   UCX  WARN  object 0xb444c80 was not returned to mpool ucp_requests
[1661217855.651135] [nc30255:707257:0]          mpool.c:42   UCX  WARN  object 0xb444e40 was not returned to mpool ucp_requests
[1661217855.651137] [nc30255:707257:0]          mpool.c:42   UCX  WARN  object 0xb445000 was not returned to mpool ucp_requests
[1661217855.651140] [nc30255:707257:0]          mpool.c:42   UCX  WARN  object 0xb4451c0 was not returned to mpool ucp_requests
[1661217855.651143] [nc30255:707257:0]          mpool.c:42   UCX  WARN  object 0xb445380 was not returned to mpool ucp_requests
[1661217855.651146] [nc30255:707257:0]          mpool.c:42   UCX  WARN  object 0xb445540 was not returned to mpool ucp_requests
[1661217855.651093] [nc30255:707277:0]          mpool.c:42   UCX  WARN  object 0xb1900c0 was not returned to mpool ucp_requests
[1661217855.651112] [nc30255:707277:0]          mpool.c:42   UCX  WARN  object 0xb190280 was not returned to mpool ucp_requests
[1661217855.651116] [nc30255:707277:0]          mpool.c:42   UCX  WARN  object 0xb190440 was not returned to mpool ucp_requests
[1661217855.651119] [nc30255:707277:0]          mpool.c:42   UCX  WARN  object 0xb190600 was not returned to mpool ucp_requests
[1661217855.651122] [nc30255:707277:0]          mpool.c:42   UCX  WARN  object 0xb1907c0 was not returned to mpool ucp_requests
[1661217855.651125] [nc30255:707277:0]          mpool.c:42   UCX  WARN  object 0xb190980 was not returned to mpool ucp_requests
[1661217855.651129] [nc30255:707277:0]          mpool.c:42   UCX  WARN  object 0xb190b40 was not returned to mpool ucp_requests
[1661217855.651132] [nc30255:707277:0]          mpool.c:42   UCX  WARN  object 0xb190d00 was not returned to mpool ucp_requests
[1661217855.651135] [nc30255:707277:0]          mpool.c:42   UCX  WARN  object 0xb190ec0 was not returned to mpool ucp_requests
[1661217855.651138] [nc30255:707277:0]          mpool.c:42   UCX  WARN  object 0xb191080 was not returned to mpool ucp_requests
[1661217855.651142] [nc30255:707277:0]          mpool.c:42   UCX  WARN  object 0xb191240 was not returned to mpool ucp_requests
[1661217855.651146] [nc30255:707277:0]          mpool.c:42   UCX  WARN  object 0xb191400 was not returned to mpool ucp_requests
[1661217855.651149] [nc30255:707277:0]          mpool.c:42   UCX  WARN  object 0xb1915c0 was not returned to mpool ucp_requests
[1661217855.681704] [nc30255:707269:0]          mpool.c:42   UCX  WARN  object 0xaff9b80 was not returned to mpool ucp_requests
[1661217855.681722] [nc30255:707269:0]          mpool.c:42   UCX  WARN  object 0xaff9d40 was not returned to mpool ucp_requests
[1661217855.681726] [nc30255:707269:0]          mpool.c:42   UCX  WARN  object 0xaff9f00 was not returned to mpool ucp_requests
[1661217855.681730] [nc30255:707269:0]          mpool.c:42   UCX  WARN  object 0xaffa0c0 was not returned to mpool ucp_requests
[1661217855.681733] [nc30255:707269:0]          mpool.c:42   UCX  WARN  object 0xaffa280 was not returned to mpool ucp_requests
[1661217855.681736] [nc30255:707269:0]          mpool.c:42   UCX  WARN  object 0xaffa440 was not returned to mpool ucp_requests
[1661217855.681740] [nc30255:707269:0]          mpool.c:42   UCX  WARN  object 0xaffa600 was not returned to mpool ucp_requests
[1661217855.681742] [nc30255:707269:0]          mpool.c:42   UCX  WARN  object 0xaffa7c0 was not returned to mpool ucp_requests
[1661217855.681746] [nc30255:707269:0]          mpool.c:42   UCX  WARN  object 0xaffa980 was not returned to mpool ucp_requests
[1661217855.681749] [nc30255:707269:0]          mpool.c:42   UCX  WARN  object 0xaffab40 was not returned to mpool ucp_requests
[1661217855.681753] [nc30255:707269:0]          mpool.c:42   UCX  WARN  object 0xaffad00 was not returned to mpool ucp_requests
[1661217855.681756] [nc30255:707269:0]          mpool.c:42   UCX  WARN  object 0xaffaec0 was not returned to mpool ucp_requests
[1661217855.681759] [nc30255:707269:0]          mpool.c:42   UCX  WARN  object 0xaffb080 was not returned to mpool ucp_requests
[1661217855.681762] [nc30255:707269:0]          mpool.c:42   UCX  WARN  object 0xaffb240 was not returned to mpool ucp_requests
[1661217855.681765] [nc30255:707269:0]          mpool.c:42   UCX  WARN  object 0xaffb400 was not returned to mpool ucp_requests
[1661217855.682405] [nc30255:707309:0]          mpool.c:42   UCX  WARN  object 0xaed8d40 was not returned to mpool ucp_requests
[1661217855.682419] [nc30255:707309:0]          mpool.c:42   UCX  WARN  object 0xaed8f00 was not returned to mpool ucp_requests
[1661217855.682423] [nc30255:707309:0]          mpool.c:42   UCX  WARN  object 0xaed90c0 was not returned to mpool ucp_requests
[1661217855.682425] [nc30255:707309:0]          mpool.c:42   UCX  WARN  object 0xaed9280 was not returned to mpool ucp_requests
[1661217855.682427] [nc30255:707309:0]          mpool.c:42   UCX  WARN  object 0xaed9440 was not returned to mpool ucp_requests
[1661217855.682430] [nc30255:707309:0]          mpool.c:42   UCX  WARN  object 0xaed9600 was not returned to mpool ucp_requests
[1661217855.682432] [nc30255:707309:0]          mpool.c:42   UCX  WARN  object 0xaed97c0 was not returned to mpool ucp_requests
[1661217855.682434] [nc30255:707309:0]          mpool.c:42   UCX  WARN  object 0xaed9980 was not returned to mpool ucp_requests
[1661217855.682436] [nc30255:707309:0]          mpool.c:42   UCX  WARN  object 0xaed9b40 was not returned to mpool ucp_requests
[1661217855.682439] [nc30255:707309:0]          mpool.c:42   UCX  WARN  object 0xaed9d00 was not returned to mpool ucp_requests
[1661217855.682441] [nc30255:707309:0]          mpool.c:42   UCX  WARN  object 0xaed9ec0 was not returned to mpool ucp_requests
[1661217855.682443] [nc30255:707309:0]          mpool.c:42   UCX  WARN  object 0xaeda080 was not returned to mpool ucp_requests
[1661217855.682445] [nc30255:707309:0]          mpool.c:42   UCX  WARN  object 0xaeda240 was not returned to mpool ucp_requests
[1661217855.690240] [nc30255:707339:0]          mpool.c:42   UCX  WARN  object 0xaee3a80 was not returned to mpool ucp_requests
[1661217855.690259] [nc30255:707339:0]          mpool.c:42   UCX  WARN  object 0xaee3c40 was not returned to mpool ucp_requests
[1661217855.690264] [nc30255:707339:0]          mpool.c:42   UCX  WARN  object 0xaee3e00 was not returned to mpool ucp_requests
[1661217855.690267] [nc30255:707339:0]          mpool.c:42   UCX  WARN  object 0xaee3fc0 was not returned to mpool ucp_requests
[1661217855.690271] [nc30255:707339:0]          mpool.c:42   UCX  WARN  object 0xaee4180 was not returned to mpool ucp_requests
[1661217855.690275] [nc30255:707339:0]          mpool.c:42   UCX  WARN  object 0xaee4340 was not returned to mpool ucp_requests
[1661217855.690278] [nc30255:707339:0]          mpool.c:42   UCX  WARN  object 0xaee4500 was not returned to mpool ucp_requests
[1661217855.690281] [nc30255:707339:0]          mpool.c:42   UCX  WARN  object 0xaee46c0 was not returned to mpool ucp_requests
[1661217855.690284] [nc30255:707339:0]          mpool.c:42   UCX  WARN  object 0xaee4880 was not returned to mpool ucp_requests
[1661217855.690288] [nc30255:707339:0]          mpool.c:42   UCX  WARN  object 0xaee4a40 was not returned to mpool ucp_requests
[1661217855.690292] [nc30255:707339:0]          mpool.c:42   UCX  WARN  object 0xaee4c00 was not returned to mpool ucp_requests
[1661217855.690296] [nc30255:707339:0]          mpool.c:42   UCX  WARN  object 0xaee4dc0 was not returned to mpool ucp_requests
[1661217855.690301] [nc30255:707339:0]          mpool.c:42   UCX  WARN  object 0xaee4f80 was not returned to mpool ucp_requests
[1661217855.691377] [nc30255:707348:0]          mpool.c:42   UCX  WARN  object 0xc361140 was not returned to mpool ucp_requests
[1661217855.691392] [nc30255:707348:0]          mpool.c:42   UCX  WARN  object 0xc361300 was not returned to mpool ucp_requests
[1661217855.691398] [nc30255:707348:0]          mpool.c:42   UCX  WARN  object 0xc3614c0 was not returned to mpool ucp_requests
[1661217855.691401] [nc30255:707348:0]          mpool.c:42   UCX  WARN  object 0xc361680 was not returned to mpool ucp_requests
[1661217855.691405] [nc30255:707348:0]          mpool.c:42   UCX  WARN  object 0xc361840 was not returned to mpool ucp_requests
[1661217855.691409] [nc30255:707348:0]          mpool.c:42   UCX  WARN  object 0xc361a00 was not returned to mpool ucp_requests
[1661217855.691413] [nc30255:707348:0]          mpool.c:42   UCX  WARN  object 0xc361bc0 was not returned to mpool ucp_requests
[1661217855.691415] [nc30255:707348:0]          mpool.c:42   UCX  WARN  object 0xc361d80 was not returned to mpool ucp_requests
[1661217855.691419] [nc30255:707348:0]          mpool.c:42   UCX  WARN  object 0xc361f40 was not returned to mpool ucp_requests
[1661217855.691423] [nc30255:707348:0]          mpool.c:42   UCX  WARN  object 0xc362100 was not returned to mpool ucp_requests
[1661217855.691426] [nc30255:707348:0]          mpool.c:42   UCX  WARN  object 0xc3622c0 was not returned to mpool ucp_requests
[1661217855.691430] [nc30255:707348:0]          mpool.c:42   UCX  WARN  object 0xc362480 was not returned to mpool ucp_requests
[1661217855.691433] [nc30255:707348:0]          mpool.c:42   UCX  WARN  object 0xc362640 was not returned to mpool ucp_requests
[1661217855.709623] [nc30255:707217:0]          mpool.c:42   UCX  WARN  object 0xb28ab40 was not returned to mpool ucp_requests
[1661217855.709641] [nc30255:707217:0]          mpool.c:42   UCX  WARN  object 0xb28ad00 was not returned to mpool ucp_requests
[1661217855.709647] [nc30255:707217:0]          mpool.c:42   UCX  WARN  object 0xb28aec0 was not returned to mpool ucp_requests
[1661217855.709651] [nc30255:707217:0]          mpool.c:42   UCX  WARN  object 0xb28b080 was not returned to mpool ucp_requests
[1661217855.709654] [nc30255:707217:0]          mpool.c:42   UCX  WARN  object 0xb28b240 was not returned to mpool ucp_requests
[1661217855.709658] [nc30255:707217:0]          mpool.c:42   UCX  WARN  object 0xb28b400 was not returned to mpool ucp_requests
[1661217855.709661] [nc30255:707217:0]          mpool.c:42   UCX  WARN  object 0xb28b5c0 was not returned to mpool ucp_requests
[1661217855.709665] [nc30255:707217:0]          mpool.c:42   UCX  WARN  object 0xb28b780 was not returned to mpool ucp_requests
[1661217855.709669] [nc30255:707217:0]          mpool.c:42   UCX  WARN  object 0xb28b940 was not returned to mpool ucp_requests
[1661217855.709673] [nc30255:707217:0]          mpool.c:42   UCX  WARN  object 0xb28bb00 was not returned to mpool ucp_requests
[1661217855.709677] [nc30255:707217:0]          mpool.c:42   UCX  WARN  object 0xb28bcc0 was not returned to mpool ucp_requests
[1661217855.709680] [nc30255:707217:0]          mpool.c:42   UCX  WARN  object 0xb28be80 was not returned to mpool ucp_requests
[1661217855.709684] [nc30255:707217:0]          mpool.c:42   UCX  WARN  object 0xb28c040 was not returned to mpool ucp_requests
[1661217855.734487] [nc30255:707302:0]          mpool.c:42   UCX  WARN  object 0xb6a0000 was not returned to mpool ucp_requests
[1661217855.734500] [nc30255:707302:0]          mpool.c:42   UCX  WARN  object 0xb6a01c0 was not returned to mpool ucp_requests
[1661217855.734505] [nc30255:707302:0]          mpool.c:42   UCX  WARN  object 0xb6a0380 was not returned to mpool ucp_requests
[1661217855.734509] [nc30255:707302:0]          mpool.c:42   UCX  WARN  object 0xb6a0540 was not returned to mpool ucp_requests
[1661217855.734513] [nc30255:707302:0]          mpool.c:42   UCX  WARN  object 0xb6a0700 was not returned to mpool ucp_requests
[1661217855.734516] [nc30255:707302:0]          mpool.c:42   UCX  WARN  object 0xb6a08c0 was not returned to mpool ucp_requests
[1661217855.734520] [nc30255:707302:0]          mpool.c:42   UCX  WARN  object 0xb6a0a80 was not returned to mpool ucp_requests
[1661217855.734524] [nc30255:707302:0]          mpool.c:42   UCX  WARN  object 0xb6a0c40 was not returned to mpool ucp_requests
[1661217855.734527] [nc30255:707302:0]          mpool.c:42   UCX  WARN  object 0xb6a0e00 was not returned to mpool ucp_requests
[1661217855.734531] [nc30255:707302:0]          mpool.c:42   UCX  WARN  object 0xb6a0fc0 was not returned to mpool ucp_requests
[1661217855.734535] [nc30255:707302:0]          mpool.c:42   UCX  WARN  object 0xb6a1180 was not returned to mpool ucp_requests
[1661217855.734539] [nc30255:707302:0]          mpool.c:42   UCX  WARN  object 0xb6a1340 was not returned to mpool ucp_requests
[1661217855.734543] [nc30255:707302:0]          mpool.c:42   UCX  WARN  object 0xb6a1500 was not returned to mpool ucp_requests
[1661217855.736242] [nc30255:707220:0]          mpool.c:42   UCX  WARN  object 0xb66a980 was not returned to mpool ucp_requests
[1661217855.736261] [nc30255:707220:0]          mpool.c:42   UCX  WARN  object 0xb66ab40 was not returned to mpool ucp_requests
[1661217855.736267] [nc30255:707220:0]          mpool.c:42   UCX  WARN  object 0xb66ad00 was not returned to mpool ucp_requests
[1661217855.736271] [nc30255:707220:0]          mpool.c:42   UCX  WARN  object 0xb66aec0 was not returned to mpool ucp_requests
[1661217855.736275] [nc30255:707220:0]          mpool.c:42   UCX  WARN  object 0xb66b080 was not returned to mpool ucp_requests
[1661217855.736279] [nc30255:707220:0]          mpool.c:42   UCX  WARN  object 0xb66b240 was not returned to mpool ucp_requests
[1661217855.736283] [nc30255:707220:0]          mpool.c:42   UCX  WARN  object 0xb66b400 was not returned to mpool ucp_requests
[1661217855.736287] [nc30255:707220:0]          mpool.c:42   UCX  WARN  object 0xb66b5c0 was not returned to mpool ucp_requests
[1661217855.736290] [nc30255:707220:0]          mpool.c:42   UCX  WARN  object 0xb66b780 was not returned to mpool ucp_requests
[1661217855.736294] [nc30255:707220:0]          mpool.c:42   UCX  WARN  object 0xb66b940 was not returned to mpool ucp_requests
[1661217855.736298] [nc30255:707220:0]          mpool.c:42   UCX  WARN  object 0xb66bb00 was not returned to mpool ucp_requests
[1661217855.736302] [nc30255:707220:0]          mpool.c:42   UCX  WARN  object 0xb66bcc0 was not returned to mpool ucp_requests
[1661217855.736305] [nc30255:707220:0]          mpool.c:42   UCX  WARN  object 0xb66be80 was not returned to mpool ucp_requests
[1661217855.752650] [nc30255:707306:0]          mpool.c:42   UCX  WARN  object 0xb99af00 was not returned to mpool ucp_requests
[1661217855.752669] [nc30255:707306:0]          mpool.c:42   UCX  WARN  object 0xb99b0c0 was not returned to mpool ucp_requests
[1661217855.752674] [nc30255:707306:0]          mpool.c:42   UCX  WARN  object 0xb99b280 was not returned to mpool ucp_requests
[1661217855.752678] [nc30255:707306:0]          mpool.c:42   UCX  WARN  object 0xb99b440 was not returned to mpool ucp_requests
[1661217855.752681] [nc30255:707306:0]          mpool.c:42   UCX  WARN  object 0xb99b600 was not returned to mpool ucp_requests
[1661217855.752685] [nc30255:707306:0]          mpool.c:42   UCX  WARN  object 0xb99b7c0 was not returned to mpool ucp_requests
[1661217855.752689] [nc30255:707306:0]          mpool.c:42   UCX  WARN  object 0xb99b980 was not returned to mpool ucp_requests
[1661217855.752693] [nc30255:707306:0]          mpool.c:42   UCX  WARN  object 0xb99bb40 was not returned to mpool ucp_requests
[1661217855.752696] [nc30255:707306:0]          mpool.c:42   UCX  WARN  object 0xb99bd00 was not returned to mpool ucp_requests
[1661217855.752700] [nc30255:707306:0]          mpool.c:42   UCX  WARN  object 0xb99bec0 was not returned to mpool ucp_requests
[1661217855.752704] [nc30255:707306:0]          mpool.c:42   UCX  WARN  object 0xb99c080 was not returned to mpool ucp_requests
[1661217855.752708] [nc30255:707306:0]          mpool.c:42   UCX  WARN  object 0xb99c240 was not returned to mpool ucp_requests
[1661217855.752711] [nc30255:707306:0]          mpool.c:42   UCX  WARN  object 0xb99c400 was not returned to mpool ucp_requests
[1661217855.755911] [nc30255:707349:0]          mpool.c:42   UCX  WARN  object 0xb3b4e80 was not returned to mpool ucp_requests
[1661217855.755932] [nc30255:707349:0]          mpool.c:42   UCX  WARN  object 0xb3b5040 was not returned to mpool ucp_requests
[1661217855.755937] [nc30255:707349:0]          mpool.c:42   UCX  WARN  object 0xb3b5200 was not returned to mpool ucp_requests
[1661217855.755941] [nc30255:707349:0]          mpool.c:42   UCX  WARN  object 0xb3b53c0 was not returned to mpool ucp_requests
[1661217855.755943] [nc30255:707349:0]          mpool.c:42   UCX  WARN  object 0xb3b5580 was not returned to mpool ucp_requests
[1661217855.755946] [nc30255:707349:0]          mpool.c:42   UCX  WARN  object 0xb3b5740 was not returned to mpool ucp_requests
[1661217855.755950] [nc30255:707349:0]          mpool.c:42   UCX  WARN  object 0xb3b5900 was not returned to mpool ucp_requests
[1661217855.755952] [nc30255:707349:0]          mpool.c:42   UCX  WARN  object 0xb3b5ac0 was not returned to mpool ucp_requests
[1661217855.755955] [nc30255:707349:0]          mpool.c:42   UCX  WARN  object 0xb3b5c80 was not returned to mpool ucp_requests
[1661217855.755959] [nc30255:707349:0]          mpool.c:42   UCX  WARN  object 0xb3b5e40 was not returned to mpool ucp_requests
[1661217855.755962] [nc30255:707349:0]          mpool.c:42   UCX  WARN  object 0xb3b6000 was not returned to mpool ucp_requests
[1661217855.755965] [nc30255:707349:0]          mpool.c:42   UCX  WARN  object 0xb3b61c0 was not returned to mpool ucp_requests
[1661217855.755968] [nc30255:707349:0]          mpool.c:42   UCX  WARN  object 0xb3b6380 was not returned to mpool ucp_requests
[1661217855.759030] [nc30255:707343:0]          mpool.c:42   UCX  WARN  object 0xb40bf40 was not returned to mpool ucp_requests
[1661217855.759044] [nc30255:707343:0]          mpool.c:42   UCX  WARN  object 0xb40c100 was not returned to mpool ucp_requests
[1661217855.759049] [nc30255:707343:0]          mpool.c:42   UCX  WARN  object 0xb40c2c0 was not returned to mpool ucp_requests
[1661217855.759053] [nc30255:707343:0]          mpool.c:42   UCX  WARN  object 0xb40c480 was not returned to mpool ucp_requests
[1661217855.759056] [nc30255:707343:0]          mpool.c:42   UCX  WARN  object 0xb40c640 was not returned to mpool ucp_requests
[1661217855.759060] [nc30255:707343:0]          mpool.c:42   UCX  WARN  object 0xb40c800 was not returned to mpool ucp_requests
[1661217855.759063] [nc30255:707343:0]          mpool.c:42   UCX  WARN  object 0xb40c9c0 was not returned to mpool ucp_requests
[1661217855.759066] [nc30255:707343:0]          mpool.c:42   UCX  WARN  object 0xb40cb80 was not returned to mpool ucp_requests
[1661217855.759070] [nc30255:707343:0]          mpool.c:42   UCX  WARN  object 0xb40cd40 was not returned to mpool ucp_requests
[1661217855.759074] [nc30255:707343:0]          mpool.c:42   UCX  WARN  object 0xb40cf00 was not returned to mpool ucp_requests
[1661217855.759077] [nc30255:707343:0]          mpool.c:42   UCX  WARN  object 0xb40d0c0 was not returned to mpool ucp_requests
[1661217855.759081] [nc30255:707343:0]          mpool.c:42   UCX  WARN  object 0xb40d280 was not returned to mpool ucp_requests
[1661217855.759084] [nc30255:707343:0]          mpool.c:42   UCX  WARN  object 0xb40d440 was not returned to mpool ucp_requests
[1661217855.761024] [nc30255:707264:0]          mpool.c:42   UCX  WARN  object 0xb3f0cc0 was not returned to mpool ucp_requests
[1661217855.761047] [nc30255:707264:0]          mpool.c:42   UCX  WARN  object 0xb3f0e80 was not returned to mpool ucp_requests
[1661217855.761052] [nc30255:707264:0]          mpool.c:42   UCX  WARN  object 0xb3f1040 was not returned to mpool ucp_requests
[1661217855.761056] [nc30255:707264:0]          mpool.c:42   UCX  WARN  object 0xb3f1200 was not returned to mpool ucp_requests
[1661217855.761060] [nc30255:707264:0]          mpool.c:42   UCX  WARN  object 0xb3f13c0 was not returned to mpool ucp_requests
[1661217855.761063] [nc30255:707264:0]          mpool.c:42   UCX  WARN  object 0xb3f1580 was not returned to mpool ucp_requests
[1661217855.761067] [nc30255:707264:0]          mpool.c:42   UCX  WARN  object 0xb3f1740 was not returned to mpool ucp_requests
[1661217855.761072] [nc30255:707264:0]          mpool.c:42   UCX  WARN  object 0xb3f1900 was not returned to mpool ucp_requests
[1661217855.761075] [nc30255:707264:0]          mpool.c:42   UCX  WARN  object 0xb3f1ac0 was not returned to mpool ucp_requests
[1661217855.761079] [nc30255:707264:0]          mpool.c:42   UCX  WARN  object 0xb3f1c80 was not returned to mpool ucp_requests
[1661217855.761082] [nc30255:707264:0]          mpool.c:42   UCX  WARN  object 0xb3f1e40 was not returned to mpool ucp_requests
[1661217855.761086] [nc30255:707264:0]          mpool.c:42   UCX  WARN  object 0xb3f2000 was not returned to mpool ucp_requests
[1661217855.761089] [nc30255:707264:0]          mpool.c:42   UCX  WARN  object 0xb3f21c0 was not returned to mpool ucp_requests
[1661217855.761092] [nc30255:707264:0]          mpool.c:42   UCX  WARN  object 0xb3f2380 was not returned to mpool ucp_requests
[1661217855.764129] [nc30255:707472:0]          mpool.c:42   UCX  WARN  object 0xa9a6140 was not returned to mpool ucp_requests
[1661217855.764148] [nc30255:707472:0]          mpool.c:42   UCX  WARN  object 0xa9a6300 was not returned to mpool ucp_requests
[1661217855.764153] [nc30255:707472:0]          mpool.c:42   UCX  WARN  object 0xa9a64c0 was not returned to mpool ucp_requests
[1661217855.764156] [nc30255:707472:0]          mpool.c:42   UCX  WARN  object 0xa9a6680 was not returned to mpool ucp_requests
[1661217855.764159] [nc30255:707472:0]          mpool.c:42   UCX  WARN  object 0xa9a6840 was not returned to mpool ucp_requests
[1661217855.764162] [nc30255:707472:0]          mpool.c:42   UCX  WARN  object 0xa9a6a00 was not returned to mpool ucp_requests
[1661217855.764165] [nc30255:707472:0]          mpool.c:42   UCX  WARN  object 0xa9a6bc0 was not returned to mpool ucp_requests
[1661217855.764167] [nc30255:707472:0]          mpool.c:42   UCX  WARN  object 0xa9a6d80 was not returned to mpool ucp_requests
[1661217855.764170] [nc30255:707472:0]          mpool.c:42   UCX  WARN  object 0xa9a6f40 was not returned to mpool ucp_requests
[1661217855.764175] [nc30255:707472:0]          mpool.c:42   UCX  WARN  object 0xa9a7100 was not returned to mpool ucp_requests
[1661217855.764178] [nc30255:707472:0]          mpool.c:42   UCX  WARN  object 0xa9a72c0 was not returned to mpool ucp_requests
[1661217855.764181] [nc30255:707472:0]          mpool.c:42   UCX  WARN  object 0xa9a7480 was not returned to mpool ucp_requests
[1661217855.764184] [nc30255:707472:0]          mpool.c:42   UCX  WARN  object 0xa9a7640 was not returned to mpool ucp_requests
[1661217855.764997] [nc30255:707230:0]          mpool.c:42   UCX  WARN  object 0xb08ad40 was not returned to mpool ucp_requests
[1661217855.765012] [nc30255:707230:0]          mpool.c:42   UCX  WARN  object 0xb08af00 was not returned to mpool ucp_requests
[1661217855.765016] [nc30255:707230:0]          mpool.c:42   UCX  WARN  object 0xb08b0c0 was not returned to mpool ucp_requests
[1661217855.765020] [nc30255:707230:0]          mpool.c:42   UCX  WARN  object 0xb08b280 was not returned to mpool ucp_requests
[1661217855.765023] [nc30255:707230:0]          mpool.c:42   UCX  WARN  object 0xb08b440 was not returned to mpool ucp_requests
[1661217855.765025] [nc30255:707230:0]          mpool.c:42   UCX  WARN  object 0xb08b600 was not returned to mpool ucp_requests
[1661217855.765028] [nc30255:707230:0]          mpool.c:42   UCX  WARN  object 0xb08b7c0 was not returned to mpool ucp_requests
[1661217855.765031] [nc30255:707230:0]          mpool.c:42   UCX  WARN  object 0xb08b980 was not returned to mpool ucp_requests
[1661217855.765035] [nc30255:707230:0]          mpool.c:42   UCX  WARN  object 0xb08bb40 was not returned to mpool ucp_requests
[1661217855.765038] [nc30255:707230:0]          mpool.c:42   UCX  WARN  object 0xb08bd00 was not returned to mpool ucp_requests
[1661217855.765043] [nc30255:707230:0]          mpool.c:42   UCX  WARN  object 0xb08bec0 was not returned to mpool ucp_requests
[1661217855.765046] [nc30255:707230:0]          mpool.c:42   UCX  WARN  object 0xb08c080 was not returned to mpool ucp_requests
[1661217855.765049] [nc30255:707230:0]          mpool.c:42   UCX  WARN  object 0xb08c240 was not returned to mpool ucp_requests
[1661217855.765052] [nc30255:707230:0]          mpool.c:42   UCX  WARN  object 0xb08c400 was not returned to mpool ucp_requests
[1661217855.770806] [nc30255:707325:0]          mpool.c:42   UCX  WARN  object 0xa8adfc0 was not returned to mpool ucp_requests
[1661217855.770830] [nc30255:707325:0]          mpool.c:42   UCX  WARN  object 0xa8ae180 was not returned to mpool ucp_requests
[1661217855.770835] [nc30255:707325:0]          mpool.c:42   UCX  WARN  object 0xa8ae340 was not returned to mpool ucp_requests
[1661217855.770839] [nc30255:707325:0]          mpool.c:42   UCX  WARN  object 0xa8ae500 was not returned to mpool ucp_requests
[1661217855.770843] [nc30255:707325:0]          mpool.c:42   UCX  WARN  object 0xa8ae6c0 was not returned to mpool ucp_requests
[1661217855.770846] [nc30255:707325:0]          mpool.c:42   UCX  WARN  object 0xa8ae880 was not returned to mpool ucp_requests
[1661217855.770850] [nc30255:707325:0]          mpool.c:42   UCX  WARN  object 0xa8aea40 was not returned to mpool ucp_requests
[1661217855.770853] [nc30255:707325:0]          mpool.c:42   UCX  WARN  object 0xa8aec00 was not returned to mpool ucp_requests
[1661217855.770858] [nc30255:707325:0]          mpool.c:42   UCX  WARN  object 0xa8aedc0 was not returned to mpool ucp_requests
[1661217855.770861] [nc30255:707325:0]          mpool.c:42   UCX  WARN  object 0xa8aef80 was not returned to mpool ucp_requests
[1661217855.770866] [nc30255:707325:0]          mpool.c:42   UCX  WARN  object 0xa8af140 was not returned to mpool ucp_requests
[1661217855.770871] [nc30255:707325:0]          mpool.c:42   UCX  WARN  object 0xa8af300 was not returned to mpool ucp_requests
[1661217855.770874] [nc30255:707325:0]          mpool.c:42   UCX  WARN  object 0xa8af4c0 was not returned to mpool ucp_requests
[1661217855.772759] [nc30255:707426:0]          mpool.c:42   UCX  WARN  object 0xab2df40 was not returned to mpool ucp_requests
[1661217855.772779] [nc30255:707426:0]          mpool.c:42   UCX  WARN  object 0xab2e100 was not returned to mpool ucp_requests
[1661217855.772782] [nc30255:707426:0]          mpool.c:42   UCX  WARN  object 0xab2e2c0 was not returned to mpool ucp_requests
[1661217855.772787] [nc30255:707426:0]          mpool.c:42   UCX  WARN  object 0xab2e480 was not returned to mpool ucp_requests
[1661217855.772796] [nc30255:707426:0]          mpool.c:42   UCX  WARN  object 0xab2e640 was not returned to mpool ucp_requests
[1661217855.772799] [nc30255:707426:0]          mpool.c:42   UCX  WARN  object 0xab2e800 was not returned to mpool ucp_requests
[1661217855.772802] [nc30255:707426:0]          mpool.c:42   UCX  WARN  object 0xab2e9c0 was not returned to mpool ucp_requests
[1661217855.772805] [nc30255:707426:0]          mpool.c:42   UCX  WARN  object 0xab2eb80 was not returned to mpool ucp_requests
[1661217855.772809] [nc30255:707426:0]          mpool.c:42   UCX  WARN  object 0xab2ed40 was not returned to mpool ucp_requests
[1661217855.772812] [nc30255:707426:0]          mpool.c:42   UCX  WARN  object 0xab2ef00 was not returned to mpool ucp_requests
[1661217855.772815] [nc30255:707426:0]          mpool.c:42   UCX  WARN  object 0xab2f0c0 was not returned to mpool ucp_requests
[1661217855.772818] [nc30255:707426:0]          mpool.c:42   UCX  WARN  object 0xab2f280 was not returned to mpool ucp_requests
[1661217855.772820] [nc30255:707426:0]          mpool.c:42   UCX  WARN  object 0xab2f440 was not returned to mpool ucp_requests
[1661217855.773037] [nc30255:707458:0]          mpool.c:42   UCX  WARN  object 0xace6f40 was not returned to mpool ucp_requests
[1661217855.773057] [nc30255:707458:0]          mpool.c:42   UCX  WARN  object 0xace7100 was not returned to mpool ucp_requests
[1661217855.773062] [nc30255:707458:0]          mpool.c:42   UCX  WARN  object 0xace72c0 was not returned to mpool ucp_requests
[1661217855.773066] [nc30255:707458:0]          mpool.c:42   UCX  WARN  object 0xace7480 was not returned to mpool ucp_requests
[1661217855.773070] [nc30255:707458:0]          mpool.c:42   UCX  WARN  object 0xace7640 was not returned to mpool ucp_requests
[1661217855.773074] [nc30255:707458:0]          mpool.c:42   UCX  WARN  object 0xace7800 was not returned to mpool ucp_requests
[1661217855.773076] [nc30255:707458:0]          mpool.c:42   UCX  WARN  object 0xace79c0 was not returned to mpool ucp_requests
[1661217855.773080] [nc30255:707458:0]          mpool.c:42   UCX  WARN  object 0xace7b80 was not returned to mpool ucp_requests
[1661217855.773084] [nc30255:707458:0]          mpool.c:42   UCX  WARN  object 0xace7d40 was not returned to mpool ucp_requests
[1661217855.773089] [nc30255:707458:0]          mpool.c:42   UCX  WARN  object 0xace7f00 was not returned to mpool ucp_requests
[1661217855.773092] [nc30255:707458:0]          mpool.c:42   UCX  WARN  object 0xace80c0 was not returned to mpool ucp_requests
[1661217855.773096] [nc30255:707458:0]          mpool.c:42   UCX  WARN  object 0xace8280 was not returned to mpool ucp_requests
[1661217855.773100] [nc30255:707458:0]          mpool.c:42   UCX  WARN  object 0xace8440 was not returned to mpool ucp_requests
[1661217855.774488] [nc30255:707367:0]          mpool.c:42   UCX  WARN  object 0xc193e40 was not returned to mpool ucp_requests
[1661217855.774511] [nc30255:707367:0]          mpool.c:42   UCX  WARN  object 0xc194000 was not returned to mpool ucp_requests
[1661217855.774516] [nc30255:707367:0]          mpool.c:42   UCX  WARN  object 0xc1941c0 was not returned to mpool ucp_requests
[1661217855.774520] [nc30255:707367:0]          mpool.c:42   UCX  WARN  object 0xc194380 was not returned to mpool ucp_requests
[1661217855.774524] [nc30255:707367:0]          mpool.c:42   UCX  WARN  object 0xc194540 was not returned to mpool ucp_requests
[1661217855.774530] [nc30255:707367:0]          mpool.c:42   UCX  WARN  object 0xc194700 was not returned to mpool ucp_requests
[1661217855.774535] [nc30255:707367:0]          mpool.c:42   UCX  WARN  object 0xc1948c0 was not returned to mpool ucp_requests
[1661217855.774538] [nc30255:707367:0]          mpool.c:42   UCX  WARN  object 0xc194a80 was not returned to mpool ucp_requests
[1661217855.774542] [nc30255:707367:0]          mpool.c:42   UCX  WARN  object 0xc194c40 was not returned to mpool ucp_requests
[1661217855.774547] [nc30255:707367:0]          mpool.c:42   UCX  WARN  object 0xc194e00 was not returned to mpool ucp_requests
[1661217855.774551] [nc30255:707367:0]          mpool.c:42   UCX  WARN  object 0xc194fc0 was not returned to mpool ucp_requests
[1661217855.774556] [nc30255:707367:0]          mpool.c:42   UCX  WARN  object 0xc195180 was not returned to mpool ucp_requests
[1661217855.774559] [nc30255:707367:0]          mpool.c:42   UCX  WARN  object 0xc195340 was not returned to mpool ucp_requests
[1661217855.778164] [nc30255:707272:0]          mpool.c:42   UCX  WARN  object 0xbf04bc0 was not returned to mpool ucp_requests
[1661217855.778186] [nc30255:707272:0]          mpool.c:42   UCX  WARN  object 0xbf04d80 was not returned to mpool ucp_requests
[1661217855.778191] [nc30255:707272:0]          mpool.c:42   UCX  WARN  object 0xbf04f40 was not returned to mpool ucp_requests
[1661217855.778195] [nc30255:707272:0]          mpool.c:42   UCX  WARN  object 0xbf05100 was not returned to mpool ucp_requests
[1661217855.778198] [nc30255:707272:0]          mpool.c:42   UCX  WARN  object 0xbf052c0 was not returned to mpool ucp_requests
[1661217855.778202] [nc30255:707272:0]          mpool.c:42   UCX  WARN  object 0xbf05480 was not returned to mpool ucp_requests
[1661217855.778206] [nc30255:707272:0]          mpool.c:42   UCX  WARN  object 0xbf05640 was not returned to mpool ucp_requests
[1661217855.778210] [nc30255:707272:0]          mpool.c:42   UCX  WARN  object 0xbf05800 was not returned to mpool ucp_requests
[1661217855.778214] [nc30255:707272:0]          mpool.c:42   UCX  WARN  object 0xbf059c0 was not returned to mpool ucp_requests
[1661217855.778217] [nc30255:707272:0]          mpool.c:42   UCX  WARN  object 0xbf05b80 was not returned to mpool ucp_requests
[1661217855.778220] [nc30255:707272:0]          mpool.c:42   UCX  WARN  object 0xbf05d40 was not returned to mpool ucp_requests
[1661217855.778224] [nc30255:707272:0]          mpool.c:42   UCX  WARN  object 0xbf05f00 was not returned to mpool ucp_requests
[1661217855.778227] [nc30255:707272:0]          mpool.c:42   UCX  WARN  object 0xbf060c0 was not returned to mpool ucp_requests
[1661217855.778231] [nc30255:707272:0]          mpool.c:42   UCX  WARN  object 0xbf06280 was not returned to mpool ucp_requests
[1661217855.778235] [nc30255:707272:0]          mpool.c:42   UCX  WARN  object 0xbf06440 was not returned to mpool ucp_requests
[1661217855.779484] [nc30255:707267:0]          mpool.c:42   UCX  WARN  object 0xa537b40 was not returned to mpool ucp_requests
[1661217855.779508] [nc30255:707267:0]          mpool.c:42   UCX  WARN  object 0xa537d00 was not returned to mpool ucp_requests
[1661217855.779514] [nc30255:707267:0]          mpool.c:42   UCX  WARN  object 0xa537ec0 was not returned to mpool ucp_requests
[1661217855.779517] [nc30255:707267:0]          mpool.c:42   UCX  WARN  object 0xa538080 was not returned to mpool ucp_requests
[1661217855.779521] [nc30255:707267:0]          mpool.c:42   UCX  WARN  object 0xa538240 was not returned to mpool ucp_requests
[1661217855.779524] [nc30255:707267:0]          mpool.c:42   UCX  WARN  object 0xa538400 was not returned to mpool ucp_requests
[1661217855.779528] [nc30255:707267:0]          mpool.c:42   UCX  WARN  object 0xa5385c0 was not returned to mpool ucp_requests
[1661217855.779531] [nc30255:707267:0]          mpool.c:42   UCX  WARN  object 0xa538780 was not returned to mpool ucp_requests
[1661217855.779534] [nc30255:707267:0]          mpool.c:42   UCX  WARN  object 0xa538940 was not returned to mpool ucp_requests
[1661217855.779538] [nc30255:707267:0]          mpool.c:42   UCX  WARN  object 0xa538b00 was not returned to mpool ucp_requests
[1661217855.779542] [nc30255:707267:0]          mpool.c:42   UCX  WARN  object 0xa538cc0 was not returned to mpool ucp_requests
[1661217855.779546] [nc30255:707267:0]          mpool.c:42   UCX  WARN  object 0xa538e80 was not returned to mpool ucp_requests
[1661217855.779549] [nc30255:707267:0]          mpool.c:42   UCX  WARN  object 0xa539040 was not returned to mpool ucp_requests
[1661217855.779552] [nc30255:707267:0]          mpool.c:42   UCX  WARN  object 0xa539200 was not returned to mpool ucp_requests
[1661217855.779555] [nc30255:707267:0]          mpool.c:42   UCX  WARN  object 0xa5393c0 was not returned to mpool ucp_requests
[1661217855.780012] [nc30255:707227:0]          mpool.c:42   UCX  WARN  object 0xb2add80 was not returned to mpool ucp_requests
[1661217855.780027] [nc30255:707227:0]          mpool.c:42   UCX  WARN  object 0xb2adf40 was not returned to mpool ucp_requests
[1661217855.780031] [nc30255:707227:0]          mpool.c:42   UCX  WARN  object 0xb2ae100 was not returned to mpool ucp_requests
[1661217855.780035] [nc30255:707227:0]          mpool.c:42   UCX  WARN  object 0xb2ae2c0 was not returned to mpool ucp_requests
[1661217855.780039] [nc30255:707227:0]          mpool.c:42   UCX  WARN  object 0xb2ae480 was not returned to mpool ucp_requests
[1661217855.780043] [nc30255:707227:0]          mpool.c:42   UCX  WARN  object 0xb2ae640 was not returned to mpool ucp_requests
[1661217855.780048] [nc30255:707227:0]          mpool.c:42   UCX  WARN  object 0xb2ae800 was not returned to mpool ucp_requests
[1661217855.780051] [nc30255:707227:0]          mpool.c:42   UCX  WARN  object 0xb2ae9c0 was not returned to mpool ucp_requests
[1661217855.780056] [nc30255:707227:0]          mpool.c:42   UCX  WARN  object 0xb2aeb80 was not returned to mpool ucp_requests
[1661217855.780061] [nc30255:707227:0]          mpool.c:42   UCX  WARN  object 0xb2aed40 was not returned to mpool ucp_requests
[1661217855.780065] [nc30255:707227:0]          mpool.c:42   UCX  WARN  object 0xb2aef00 was not returned to mpool ucp_requests
[1661217855.780068] [nc30255:707227:0]          mpool.c:42   UCX  WARN  object 0xb2af0c0 was not returned to mpool ucp_requests
[1661217855.780071] [nc30255:707227:0]          mpool.c:42   UCX  WARN  object 0xb2af280 was not returned to mpool ucp_requests
[1661217855.780075] [nc30255:707227:0]          mpool.c:42   UCX  WARN  object 0xb2af440 was not returned to mpool ucp_requests
[1661217855.781504] [nc30255:707315:0]          mpool.c:42   UCX  WARN  object 0xb42df00 was not returned to mpool ucp_requests
[1661217855.781520] [nc30255:707315:0]          mpool.c:42   UCX  WARN  object 0xb42e0c0 was not returned to mpool ucp_requests
[1661217855.781525] [nc30255:707315:0]          mpool.c:42   UCX  WARN  object 0xb42e280 was not returned to mpool ucp_requests
[1661217855.781528] [nc30255:707315:0]          mpool.c:42   UCX  WARN  object 0xb42e440 was not returned to mpool ucp_requests
[1661217855.781532] [nc30255:707315:0]          mpool.c:42   UCX  WARN  object 0xb42e600 was not returned to mpool ucp_requests
[1661217855.781536] [nc30255:707315:0]          mpool.c:42   UCX  WARN  object 0xb42e7c0 was not returned to mpool ucp_requests
[1661217855.781540] [nc30255:707315:0]          mpool.c:42   UCX  WARN  object 0xb42e980 was not returned to mpool ucp_requests
[1661217855.781544] [nc30255:707315:0]          mpool.c:42   UCX  WARN  object 0xb42eb40 was not returned to mpool ucp_requests
[1661217855.781547] [nc30255:707315:0]          mpool.c:42   UCX  WARN  object 0xb42ed00 was not returned to mpool ucp_requests
[1661217855.781550] [nc30255:707315:0]          mpool.c:42   UCX  WARN  object 0xb42eec0 was not returned to mpool ucp_requests
[1661217855.781553] [nc30255:707315:0]          mpool.c:42   UCX  WARN  object 0xb42f080 was not returned to mpool ucp_requests
[1661217855.781557] [nc30255:707315:0]          mpool.c:42   UCX  WARN  object 0xb42f240 was not returned to mpool ucp_requests
[1661217855.781560] [nc30255:707315:0]          mpool.c:42   UCX  WARN  object 0xb42f400 was not returned to mpool ucp_requests
[1661217855.782875] [nc30255:707229:0]          mpool.c:42   UCX  WARN  object 0xb391d40 was not returned to mpool ucp_requests
[1661217855.782896] [nc30255:707229:0]          mpool.c:42   UCX  WARN  object 0xb391f00 was not returned to mpool ucp_requests
[1661217855.782901] [nc30255:707229:0]          mpool.c:42   UCX  WARN  object 0xb3920c0 was not returned to mpool ucp_requests
[1661217855.782905] [nc30255:707229:0]          mpool.c:42   UCX  WARN  object 0xb392280 was not returned to mpool ucp_requests
[1661217855.782910] [nc30255:707229:0]          mpool.c:42   UCX  WARN  object 0xb392440 was not returned to mpool ucp_requests
[1661217855.782914] [nc30255:707229:0]          mpool.c:42   UCX  WARN  object 0xb392600 was not returned to mpool ucp_requests
[1661217855.782917] [nc30255:707229:0]          mpool.c:42   UCX  WARN  object 0xb3927c0 was not returned to mpool ucp_requests
[1661217855.782921] [nc30255:707229:0]          mpool.c:42   UCX  WARN  object 0xb392980 was not returned to mpool ucp_requests
[1661217855.782924] [nc30255:707229:0]          mpool.c:42   UCX  WARN  object 0xb392b40 was not returned to mpool ucp_requests
[1661217855.782928] [nc30255:707229:0]          mpool.c:42   UCX  WARN  object 0xb392d00 was not returned to mpool ucp_requests
[1661217855.782933] [nc30255:707229:0]          mpool.c:42   UCX  WARN  object 0xb392ec0 was not returned to mpool ucp_requests
[1661217855.782937] [nc30255:707229:0]          mpool.c:42   UCX  WARN  object 0xb393080 was not returned to mpool ucp_requests
[1661217855.782940] [nc30255:707229:0]          mpool.c:42   UCX  WARN  object 0xb393240 was not returned to mpool ucp_requests
[1661217855.782944] [nc30255:707229:0]          mpool.c:42   UCX  WARN  object 0xb393400 was not returned to mpool ucp_requests
[1661217855.785263] [nc30255:707216:0]          mpool.c:42   UCX  WARN  object 0xbc3fd40 was not returned to mpool ucp_requests
[1661217855.785285] [nc30255:707216:0]          mpool.c:42   UCX  WARN  object 0xbc3ff00 was not returned to mpool ucp_requests
[1661217855.785290] [nc30255:707216:0]          mpool.c:42   UCX  WARN  object 0xbc400c0 was not returned to mpool ucp_requests
[1661217855.785294] [nc30255:707216:0]          mpool.c:42   UCX  WARN  object 0xbc40280 was not returned to mpool ucp_requests
[...]
 146   39709.3    251.8     -0.00000   0.00001  -0.00000  -0.00000
 147   39735.7    251.7     -0.00007   0.00030   0.00000   0.06517
 148   39736.4    251.7      0.00011  -0.06507  -0.00000   0.00030
 149   39894.1    250.7     -0.00000   0.00000  -0.00002   0.00142
 150   39903.0    250.6     -0.00000  -0.00045  -0.00000  -0.00001
 151   40194.0    248.8     -0.00000   0.00002   0.00001  -0.00001
 152   40200.1    248.8     -0.00001  -0.00000   0.00369  -0.00001
 153   40270.3    248.3     -0.00000   0.00228  -0.00000  -0.00000
 154   40277.1    248.3     -0.00000  -0.00000   0.00004   0.00287
 155   40361.4    247.8      0.00000  -0.00001   0.00000  -0.00000
 156   40772.5    245.3      0.00000   0.00002   0.00007   0.00263
 157   40773.6    245.3     -0.00002  -0.00162  -0.00004  -0.00002
 158   40802.5    245.1     -0.00000   0.00003   0.00005  -0.00001
 159   40804.0    245.1     -0.00002  -0.00001  -0.01207  -0.00002
 160   40860.3    244.7     -0.00027   0.00002  -0.91191  -0.00006
 161   40971.3    244.1     -0.00001   0.00000  -0.00000  -0.00000
 162   40974.3    244.1     -0.00000  -0.00002   0.00933  -0.00001
 163   41035.7    243.7     -0.00019  -0.00029   0.00001   0.05044
 164   41060.2    243.5      0.00378  -0.74685  -0.00001   0.00152
 165   41062.4    243.5      0.01776   0.00153  -0.00006   0.74443
 166   41139.9    243.1     -0.01934   0.00005   0.00000   0.00012
 167   41141.0    243.1     -0.00346   0.00002   0.01201   0.00004
 168   41175.1    242.9      0.00003  -0.00011  -0.00001  -0.00072
 169   41182.8    242.8      0.00001   0.00396   0.00002   0.00004
 170   41350.3    241.8     -0.00000   0.00437  -0.00000   0.00001
 171   41351.8    241.8      0.00000   0.00005   0.00002  -0.00409
 172   41353.7    241.8     -0.00001   0.00000  -0.00001  -0.00001
 173   41354.4    241.8     -0.00003   0.00002   0.00593   0.00000
 174   41744.2    239.6      0.00022   0.00000  -0.38933  -0.00004
 175   41899.4    238.7      0.00007   0.00014   0.00000  -0.00001
 176   41906.0    238.6     -0.00157   0.00036   0.00000  -0.16822
 177   41942.1    238.4     -0.04157  -0.00105   0.00003   0.00097
 178   41943.1    238.4     -0.04521  -0.00106   0.01258  -0.00041
 179   41946.1    238.4      0.04679  -1.03036  -0.00002  -0.00229
 180   41947.5    238.4      0.04544   0.00227   0.00002  -1.01607
 181   42327.7    236.3      0.00016   0.00002  -0.00000  -0.00205
 182   42328.2    236.2     -0.00001   0.00014   0.00000  -0.00003
 183   42337.8    236.2     -0.00187   0.00001   0.00001  -0.00002
 184   42340.0    236.2     -0.00068  -0.00001   0.00113  -0.00001
 185   42479.9    235.4     -0.00018   0.00000   0.00000   0.00000
 186   42483.6    235.4     -0.00003  -0.00000  -0.00077  -0.00001
 187   42586.9    234.8     -0.00005   0.00705   0.00000   0.00001
 188   42653.8    234.4      0.00001  -0.00001   0.00000  -0.00001
 189   42659.0    234.4     -0.00000  -0.00001   0.00003   0.00001
 190   42659.1    234.4     -0.00000  -0.00001   0.00000  -0.00000
 191   42823.9    233.5      0.00000  -0.00001   0.00000  -0.00001
 192   43175.9    231.6     -0.00000  -0.00001   0.00000   0.00000
 193   43182.2    231.6      0.00002  -0.00001  -0.00011  -0.00001
 194   43344.1    230.7      0.00404  -0.00003  -0.00414   0.00001
 195   43344.7    230.7      0.00249   0.00000   0.00003   0.00002
 196   43406.7    230.4     -0.00003  -0.00001  -0.00023   0.00002
 197   43417.2    230.3     -0.00001  -0.00002  -0.00000  -0.00000
 198   43541.9    229.7     -0.00316   0.00147   0.00000   0.56607
 199   43545.9    229.6     -0.00207  -0.56429   0.00000   0.00146
 200   43609.5    229.3      0.00001  -0.00003   0.00000   0.00002
 201   43611.6    229.3      0.00001  -0.00001  -0.00240   0.00006
 202   43635.3    229.2     -0.00034   0.00001  -0.00001   0.00003
 203   43635.5    229.2      0.00004  -0.00000  -0.00608   0.00005
 204   43665.1    229.0      0.00003   0.00002   0.00000   0.00001
 205   43713.5    228.8      0.00000   0.00001   0.14121   0.00001
 206   43787.3    228.4     -0.00001   0.00001   0.00001  -0.00000
 207   43788.3    228.4     -0.00000  -0.00000   0.00073  -0.00002
 208   43889.2    227.8      0.00054   0.00000  -0.00001  -0.00001
 209   43890.6    227.8     -0.00053  -0.00001  -0.00028  -0.00001
 210   43900.0    227.8     -0.00021   0.00421  -0.00001  -0.00017
 211   43900.0    227.8     -0.00005  -0.00009  -0.00001  -0.00845
 212   44011.4    227.2      0.00000  -0.00001  -0.00000  -0.00078
 213   44166.5    226.4     -0.00000  -0.00001   0.00149  -0.00001
 214   44166.7    226.4     -0.00000   0.00000  -0.00001   0.00000
 215   44397.0    225.2      0.00043  -0.00003  -0.00001   0.07683
 216   44402.3    225.2     -0.00001   0.07644  -0.00001   0.00003
 217   44479.0    224.8     -0.00319   0.00001   0.00000   0.00002
 218   44483.9    224.8      0.00288   0.00002   0.00120  -0.00002
 219   44613.3    224.1     -0.00337  -0.37682  -0.00001  -0.00096
 220   44615.5    224.1      0.00332   0.00095  -0.00000  -0.37552
 221   44688.2    223.8      0.00001   0.00385   0.00005   0.00000
 222   44689.6    223.8     -0.00000   0.00003  -0.00006   0.00091
 223   44727.8    223.6     -0.00024  -0.00001   0.30596   0.00000
 224   44770.8    223.4      0.00000  -0.00001   0.00001  -0.00000
 225   44888.4    222.8      0.00000   0.00001  -0.00001  -0.00000
 226   44888.7    222.8      0.00000  -0.00000  -0.00131  -0.00000
 227   44959.0    222.4      0.00001   0.00284  -0.00001  -0.00000
 228   45276.3    220.9     -0.00046  -0.00001  -0.00062  -0.00001
 229   45277.9    220.9      0.00018   0.00000  -0.00001  -0.00000
 230   45452.0    220.0      0.00000  -0.00001  -0.00000  -0.00003
 231   45504.8    219.8      0.00001  -0.00378  -0.00001  -0.00002
 232   45506.1    219.8     -0.00000   0.00001  -0.00001  -0.00092
 233   45599.1    219.3      0.00028  -0.30869  -0.00000   0.00044
 234   45602.3    219.3     -0.00016  -0.00044   0.00000  -0.30803
 235   45655.1    219.0     -0.00001   0.00003  -0.00083   0.00005
 236   45656.0    219.0     -0.00000  -0.00003  -0.00000   0.00001
 237   45769.6    218.5     -0.00010  -0.00001   0.00008  -0.00000
 238   45769.7    218.5     -0.00005  -0.00000   0.00107  -0.00001
 239   45861.5    218.0     -0.00000  -0.00728   0.00001   0.00006
 240   45863.4    218.0     -0.00001  -0.00003   0.00000   0.00331
 241   45914.6    217.8     -0.00007   0.00008  -0.00000  -0.17634
 242   45921.4    217.8     -0.00038   0.17883   0.00000   0.00008
 243   45958.9    217.6     -0.00001  -0.00001   0.00136   0.00003
 244   45962.8    217.6      0.00001   0.00002   0.00000   0.00000
 245   46001.5    217.4     -0.00004   0.00611  -0.00000   0.00001
 246   46131.8    216.8     -0.00000   0.00001   0.00000   0.01604
 247   46172.5    216.6     -0.00000   0.00000   0.00002   0.00001
 248   46176.0    216.6     -0.00001  -0.00000  -0.00365  -0.00002
 249   46326.1    215.9      0.00000  -0.00784  -0.00000  -0.00002
 250   46327.5    215.9      0.00000  -0.00007  -0.00000   0.00106
 251   46397.5    215.5     -0.00037   0.00034   0.00000   0.33461
 252   46402.9    215.5      0.00048   0.33528  -0.00001  -0.00037
 253   46500.7    215.1     -0.00001   0.00000  -0.00000  -0.00912
 254   46507.5    215.0     -0.00000  -0.00920   0.00000  -0.00004
 255   46732.5    214.0      0.00027  -0.00059  -0.00000  -0.31341
 256   46733.8    214.0     -0.00014  -0.31109  -0.00000   0.00058
 257   46822.4    213.6     -0.00001   0.00002   0.00000   0.00002
 258   46830.5    213.5      0.00002   0.00000   0.00000   0.01203
 259   46947.0    213.0      0.00189   0.00003   0.00470  -0.00005
 260   46949.0    213.0     -0.00221   0.00007   0.00000   0.00004
 261   46979.2    212.9     -0.00008   0.00001  -0.00001   0.01653
 262   47073.2    212.4      0.00248  -0.00078   0.00014   0.53478
 263   47075.6    212.4     -0.00188  -0.53429   0.00005  -0.00078
 264   47145.3    212.1      0.00050  -0.00007  -0.49616   0.00014
 265   47475.5    210.6     -0.00037  -0.00000   1.11514   0.00000
 266   47494.2    210.6     -0.00036  -0.00001  -0.00368  -0.00001
 267   47494.7    210.5     -0.00030   0.00000   0.17531   0.00001
 268   47569.1    210.2      0.00044   0.00275   0.00002  -0.00000
 269   47645.8    209.9     -0.00002   0.00745  -0.00002   0.00002
 270   47647.0    209.9      0.00000  -0.00001   0.00000   0.00444
 271   47769.8    209.3      0.00000  -0.00000   0.00008   0.00000
 272   47770.3    209.3      0.00001   0.00000  -0.00598  -0.00000
 273   48101.9    207.9     -0.00000  -0.00099  -0.00000  -0.00001
 274   48103.1    207.9      0.00000  -0.00000  -0.00000   0.00172
 275   48126.3    207.8     -0.00018   0.00000   0.00139   0.00000
 276   48126.5    207.8     -0.00008   0.00001   0.00006  -0.00000
 277   48634.3    205.6     -0.00015   0.10738  -0.00001   0.00021
 278   48635.3    205.6     -0.00004   0.00019   0.00001  -0.10906
 279   48835.6    204.8     -0.00000  -0.00000   0.00001   0.00067
 280   48836.8    204.8     -0.00000  -0.00009  -0.00000  -0.00000
 281   48869.7    204.6     -0.00000  -0.00492   0.00000  -0.00001
 282   48872.8    204.6     -0.00001  -0.00000   0.00000  -0.00610
 283   48923.8    204.4     -0.00000   0.00004  -0.00000  -0.00003
 284   48961.7    204.2     -0.00000   0.00010  -0.00000   0.00232
 285   49013.9    204.0      0.00045   0.49217   0.00001  -0.00219
 286   49017.9    204.0      0.00055  -0.00218  -0.00001  -0.49208
 287   49104.5    203.6     -0.00002   0.00001   0.00001  -0.00000
 288   49110.4    203.6     -0.00004  -0.00001  -0.00079  -0.00001
 289   49171.0    203.4      0.00000   0.00001   0.00001  -0.00001
 290   49172.5    203.4     -0.00000   0.00001  -0.00000  -0.00105
 291   49308.9    202.8     -0.00000  -0.00031   0.00000   0.00001
 292   49315.4    202.8      0.00000  -0.00001   0.00000   0.00011
 293   49553.2    201.8      0.00002  -0.00149  -0.00000   0.00002
 294   49562.7    201.8      0.00002   0.03536  -0.00000  -0.00009
 295   49565.9    201.8     -0.00000   0.00006  -0.00001   0.02344
 296   49568.9    201.7     -0.00004  -0.00001  -0.00001   0.02513
 297   49569.6    201.7      0.00001  -0.01015   0.00000  -0.00028
 298   49588.0    201.7      0.00000   0.00001   0.00000   0.00316
 299   49642.6    201.4      0.00000   0.00001   0.00003   0.00001
 300   49644.7    201.4     -0.00004   0.00000  -0.00219   0.00001
 301   49683.1    201.3      0.00065  -0.00044  -0.00001   0.00001
 302   49858.4    200.6      0.00022  -0.00170  -0.00000   0.12606
 303   49859.2    200.6      0.00012  -0.12856   0.00000  -0.00170
 304   49928.2    200.3      0.00000  -0.00000   0.00000  -0.00558
 305   49933.3    200.3      0.00001   0.00202  -0.00000   0.00001
 306   49998.3    200.0     -0.00001   0.32742  -0.00000   0.00060
 307   50001.3    200.0     -0.00023   0.00062  -0.00001  -0.32739
 308   50241.7    199.0     -0.00130   0.00002  -0.00005   0.00003
 309   50241.8    199.0     -0.00007   0.00000  -0.00057   0.00001
 310   50246.1    199.0      0.00003   0.00007   0.00001   0.00078
 311   50247.9    199.0     -0.00078   0.01552  -0.00000   0.00005
 312   50315.0    198.7      0.00128  -0.00023  -0.00001   0.48981
 313   50317.3    198.7     -0.00023   0.49111  -0.00000   0.00023
 314   50409.7    198.4      0.00221  -0.00006  -0.00295   0.00002
 315   50410.1    198.4     -0.00179  -0.00010   0.00001  -0.00005
 316   50428.6    198.3      0.00227   0.00044   0.00000  -0.40451
 317   50429.5    198.3     -0.00124   0.40301   0.00000   0.00045
 318   50565.3    197.8      0.00000  -0.00000   0.00046   0.00001
 319   50567.3    197.8      0.00000  -0.00000   0.00001   0.00000
 320   50672.5    197.3     -0.00000  -0.00011  -0.00000  -0.00317
 321   50672.7    197.3      0.00000   0.00299  -0.00001  -0.00012
 322   50964.5    196.2     -0.00001   0.00689   0.00000   0.00003
 323   50969.9    196.2      0.00000  -0.00002  -0.00001   0.00348
 324   51009.0    196.0     -0.00030  -0.00027   0.00000  -0.12041
 325   51010.1    196.0      0.00038  -0.12185  -0.00000   0.00027
 326   51118.6    195.6      0.00005   0.00387   0.00001   0.00000
 327   51174.4    195.4     -0.00017  -0.00000   0.00011   0.00001
 328   51175.4    195.4      0.00020  -0.00000  -0.00000   0.00001
 329   51354.0    194.7     -0.00002  -0.00000  -0.00320  -0.00001
 330   51360.9    194.7     -0.00000   0.00000  -0.00000   0.00000
 331   51377.0    194.6      0.00000  -0.00363  -0.00000   0.00000
 332   51378.6    194.6      0.00000  -0.00001   0.00001  -0.00167
 333   51410.1    194.5      0.00153  -0.00217  -0.00002  -0.00001
 334   51485.6    194.2     -0.00001   0.00003   0.00003   0.01748
 335   51493.1    194.2      0.00000  -0.00001   0.00007  -0.00002
 336   51497.0    194.2      0.00009  -0.00006   0.01273  -0.00007
 337   51498.1    194.2     -0.00003   0.00028  -0.00012  -0.03371
 338   51499.7    194.2      0.00008   0.03854   0.00001   0.00024
 339   51512.4    194.1     -0.00040  -0.00001   0.29740  -0.00001
 340   51669.6    193.5     -0.00033  -0.00000   0.43811  -0.00001
 341   51690.0    193.5     -0.00029  -0.00286  -0.00021   0.00003
 342   51690.5    193.5      0.00000  -0.00000  -0.00003  -0.00236
 343   51738.8    193.3     -0.00000  -0.00000  -0.00747  -0.00002
 344   51740.7    193.3      0.00000   0.00000  -0.00002   0.00001
 345   51834.4    192.9     -0.00012  -0.00071  -0.00001  -0.30692
 346   51834.8    192.9      0.00045  -0.30694  -0.00001   0.00071
 347   51932.4    192.6      0.00034  -0.00041  -0.00000   0.00002
 348   51935.2    192.5      0.00000   0.00002   0.00001  -0.00833
 349   51938.1    192.5     -0.00022  -0.00750   0.00000  -0.00003
 350   51980.7    192.4     -0.00001   0.00000   0.00206   0.00001
 351   51983.3    192.4     -0.00002   0.00002   0.00001   0.00001
 352   52016.0    192.2      0.00037   0.00189  -0.00001  -0.18876
 353   52016.5    192.2     -0.00005  -0.18812  -0.00000  -0.00189
 354   52112.3    191.9     -0.00000  -0.00000  -0.00001  -0.00094
 355   52163.3    191.7     -0.00000  -0.00000   0.00000  -0.00001
 356   52245.3    191.4      0.00000  -0.00000  -0.00002  -0.00001
 357   52246.1    191.4      0.00000   0.00001  -0.00290   0.00000
 358   52257.6    191.4     -0.00000   0.00001  -0.00001  -0.00255
 359   52333.7    191.1      0.00002   0.00000   0.00368  -0.00000
 360   52334.9    191.1     -0.00001  -0.00001  -0.00002  -0.00000
 361   52345.2    191.0      0.00000   0.00007   0.00000  -0.00000
 362   52355.7    191.0     -0.00000  -0.00000   0.00000   0.00039
 363   52551.3    190.3     -0.00000  -0.00000   0.00000  -0.00114
 364   52552.4    190.3     -0.00000  -0.00129  -0.00000   0.00000
 365   52616.6    190.1     -0.00000  -0.00001   0.00000  -0.00000
 366   52696.9    189.8     -0.00000  -0.00000   0.00000  -0.00000
 367   52697.2    189.8      0.00000  -0.00000   0.00052  -0.00001
 368   52763.7    189.5     -0.00000   0.00000  -0.00282  -0.00000
 369   52763.7    189.5      0.00001   0.00000   0.00056  -0.00001
 370   52809.6    189.4     -0.00000   0.00001   0.00000  -0.00201
 371   52811.8    189.4      0.00001   0.00399   0.00000   0.00001
 372   52850.6    189.2      0.00000   0.00000   0.00422   0.00001
 373   52851.1    189.2      0.00005   0.00000  -0.00003  -0.00001
 374   52972.7    188.8      0.00000  -0.00000  -0.00036   0.00000
 375   52975.7    188.8      0.00000   0.00000   0.00000   0.00000
 376   53098.3    188.3      0.00024   0.00000  -0.18199   0.00001
 377   53199.2    188.0      0.00001   0.00486   0.00002   0.00002
 378   53201.1    188.0      0.00001  -0.00000  -0.00000  -0.00439
 379   53379.1    187.3      0.00029   0.00195   0.00000   0.44161
 380   53380.0    187.3     -0.00045  -0.43346  -0.00000   0.00209
 381   53392.6    187.3     -0.00069   0.09027  -0.00001   0.00046
 382   53600.5    186.6      0.00000   0.00001   0.00000   0.00000
 383   53601.3    186.6      0.00002  -0.00002   0.00074  -0.00001
 384   53670.3    186.3     -0.00000   0.00000   0.00041   0.00001
 385   53677.5    186.3     -0.00000  -0.00000  -0.00000  -0.00000
 386   53696.0    186.2      0.00002  -0.00000   0.00025  -0.00001
 387   53697.1    186.2     -0.00002  -0.00001   0.00000  -0.00000
 388   53875.5    185.6     -0.00020  -0.00001   0.00189  -0.00001
 389   53876.2    185.6     -0.00012   0.00001  -0.00000   0.00000
 390   53882.1    185.6      0.00004  -0.00001   0.00000   0.00000
 391   53884.4    185.6     -0.00001   0.00000  -0.00105   0.00000
 392   54244.7    184.3      0.00034  -0.00005   0.00001   0.18687
 393   54246.0    184.3      0.00008  -0.18557   0.00000  -0.00005
 394   54295.5    184.2     -0.00000   0.00000  -0.00000  -0.00000
 395   54363.8    183.9     -0.00000  -0.00001  -0.00000  -0.00001
 396   54370.3    183.9      0.00000   0.00001   0.00130  -0.00000
 397   54424.6    183.7     -0.00011  -0.00000  -0.04828   0.00000
 398   54426.3    183.7     -0.00013  -0.00000   0.00003  -0.00000
 399   54450.8    183.7      0.00028   0.00000   0.21684   0.00001
 400   54464.4    183.6      0.00005  -0.00000   0.00009   0.00001

Total run time:     3940.011 sec

           *** ORCA-CIS/TD-DFT FINISHED WITHOUT ERROR ***

Maximum memory used throughout the entire CIS-calculation: 2561.8 MB

-----------------------
CIS/TD-DFT TOTAL ENERGY
-----------------------

    E(SCF)  =  -2665.394296736 Eh
    DE(CIS) =      0.077753110 Eh (Root  1)
    ----------------------------- ---------
    E(tot)  =  -2665.316543625 Eh


-------------------------   --------------------
FINAL SINGLE POINT ENERGY     -2665.316543625252
-------------------------   --------------------


                            ***************************************
                            *     ORCA property calculations      *
                            ***************************************

                                    ---------------------
                                    Active property flags
                                    ---------------------
   (+) Dipole Moment


------------------------------------------------------------------------------
                       ORCA ELECTRIC PROPERTIES CALCULATION
------------------------------------------------------------------------------

Dipole Moment Calculation                       ... on
Quadrupole Moment Calculation                   ... off
Polarizability Calculation                      ... off
GBWName                                         ... UV_c70-D5h.gbw
Electron density                                ... UV_c70-D5h.scfp
The origin for moment calculation is the CENTER OF MASS  = ( 0.000000, -0.000000  0.000000)

-------------
DIPOLE MOMENT
-------------
                                X             Y             Z
Electronic contribution:     -0.00000      -0.00001      -0.00096
Nuclear contribution   :     -0.00000      -0.00000      -0.00000
                        -----------------------------------------
Total Dipole Moment    :     -0.00000      -0.00001      -0.00096
                        -----------------------------------------
Magnitude (a.u.)       :      0.00096
Magnitude (Debye)      :      0.00245



--------------------
Rotational spectrum 
--------------------
 
Rotational constants in cm-1:     0.002246     0.001940     0.001940 
Rotational constants in MHz :    67.335991    58.166609    58.160276 

 Dipole components along the rotational axes: 
x,y,z [a.u.] :    -0.000008    -0.000001    -0.000963 
x,y,z [Debye]:    -0.000021    -0.000003    -0.002448 

 

Timings for individual modules:

Sum of individual times         ...     4141.808 sec (=  69.030 min)
GTO integral calculation        ...        4.013 sec (=   0.067 min)   0.1 %
SCF iterations                  ...      187.120 sec (=   3.119 min)   4.5 %
CIS module                      ...     3950.674 sec (=  65.845 min)  95.4 %
                             ****ORCA TERMINATED NORMALLY****
TOTAL RUN TIME: 0 days 1 hours 9 minutes 10 seconds 48 msec
