
                                 *****************
                                 * O   R   C   A *
                                 *****************

                                            #,                                       
                                            ###                                      
                                            ####                                     
                                            #####                                    
                                            ######                                   
                                           ########,                                 
                                     ,,################,,,,,                         
                               ,,#################################,,                 
                          ,,##########################################,,             
                       ,#########################################, ''#####,          
                    ,#############################################,,   '####,        
                  ,##################################################,,,,####,       
                ,###########''''           ''''###############################       
              ,#####''   ,,,,##########,,,,          '''####'''          '####       
            ,##' ,,,,###########################,,,                        '##       
           ' ,,###''''                  '''############,,,                           
         ,,##''                                '''############,,,,        ,,,,,,###''
      ,#''                                            '''#######################'''  
     '                                                          ''''####''''         
             ,#######,   #######,   ,#######,      ##                                
            ,#'     '#,  ##    ##  ,#'     '#,    #''#        ######   ,####,        
            ##       ##  ##   ,#'  ##            #'  '#       #        #'  '#        
            ##       ##  #######   ##           ,######,      #####,   #    #        
            '#,     ,#'  ##    ##  '#,     ,#' ,#      #,         ##   #,  ,#        
             '#######'   ##     ##  '#######'  #'      '#     #####' # '####'        



                  #######################################################
                  #                        -***-                        #
                  #          Department of theory and spectroscopy      #
                  #    Directorship and core code : Frank Neese         #
                  #        Max Planck Institute fuer Kohlenforschung    #
                  #                Kaiser Wilhelm Platz 1               #
                  #                 D-45470 Muelheim/Ruhr               #
                  #                      Germany                        #
                  #                                                     #
                  #                  All rights reserved                #
                  #                        -***-                        #
                  #######################################################


                         Program Version 5.0.2 -  RELEASE  -


 With contributions from (in alphabetic order):
   Daniel Aravena         : Magnetic Suceptibility
   Michael Atanasov       : Ab Initio Ligand Field Theory (pilot matlab implementation)
   Alexander A. Auer      : GIAO ZORA, VPT2 properties, NMR spectrum
   Ute Becker             : Parallelization
   Giovanni Bistoni       : ED, misc. LED, open-shell LED, HFLD
   Martin Brehm           : Molecular dynamics
   Dmytro Bykov           : SCF Hessian
   Vijay G. Chilkuri      : MRCI spin determinant printing, contributions to CSF-ICE
   Dipayan Datta          : RHF DLPNO-CCSD density
   Achintya Kumar Dutta   : EOM-CC, STEOM-CC
   Dmitry Ganyushin       : Spin-Orbit,Spin-Spin,Magnetic field MRCI
   Miquel Garcia          : C-PCM and meta-GGA Hessian, CC/C-PCM, Gaussian charge scheme
   Yang Guo               : DLPNO-NEVPT2, F12-NEVPT2, CIM, IAO-localization
   Andreas Hansen         : Spin unrestricted coupled pair/coupled cluster methods
   Benjamin Helmich-Paris : MC-RPA, TRAH-SCF, COSX integrals
   Lee Huntington         : MR-EOM, pCC
   Robert Izsak           : Overlap fitted RIJCOSX, COSX-SCS-MP3, EOM
   Marcus Kettner         : VPT2
   Christian Kollmar      : KDIIS, OOCD, Brueckner-CCSD(T), CCSD density, CASPT2, CASPT2-K
   Simone Kossmann        : Meta GGA functionals, TD-DFT gradient, OOMP2, MP2 Hessian
   Martin Krupicka        : Initial AUTO-CI
   Lucas Lang             : DCDCAS
   Marvin Lechner         : AUTO-CI (C++ implementation), FIC-MRCC
   Dagmar Lenk            : GEPOL surface, SMD
   Dimitrios Liakos       : Extrapolation schemes; Compound Job, initial MDCI parallelization
   Dimitrios Manganas     : Further ROCIS development; embedding schemes
   Dimitrios Pantazis     : SARC Basis sets
   Anastasios Papadopoulos: AUTO-CI, single reference methods and gradients
   Taras Petrenko         : DFT Hessian,TD-DFT gradient, ASA, ECA, R-Raman, ABS, FL, XAS/XES, NRVS
   Peter Pinski           : DLPNO-MP2, DLPNO-MP2 Gradient
   Christoph Reimann      : Effective Core Potentials
   Marius Retegan         : Local ZFS, SOC
   Christoph Riplinger    : Optimizer, TS searches, QM/MM, DLPNO-CCSD(T), (RO)-DLPNO pert. Triples
   Tobias Risthaus        : Range-separated hybrids, TD-DFT gradient, RPA, STAB
   Michael Roemelt        : Original ROCIS implementation
   Masaaki Saitow         : Open-shell DLPNO-CCSD energy and density
   Barbara Sandhoefer     : DKH picture change effects
   Avijit Sen             : IP-ROCIS
   Kantharuban Sivalingam : CASSCF convergence, NEVPT2, FIC-MRCI
   Bernardo de Souza      : ESD, SOC TD-DFT
   Georgi Stoychev        : AutoAux, RI-MP2 NMR, DLPNO-MP2 response
   Willem Van den Heuvel  : Paramagnetic NMR
   Boris Wezisla          : Elementary symmetry handling
   Frank Wennmohs         : Technical directorship


 We gratefully acknowledge several colleagues who have allowed us to
 interface, adapt or use parts of their codes:
   Stefan Grimme, W. Hujo, H. Kruse, P. Pracht,  : VdW corrections, initial TS optimization,
                  C. Bannwarth, S. Ehlert          DFT functionals, gCP, sTDA/sTD-DF
   Ed Valeev, F. Pavosevic, A. Kumar             : LibInt (2-el integral package), F12 methods
   Garnet Chan, S. Sharma, J. Yang, R. Olivares  : DMRG
   Ulf Ekstrom                                   : XCFun DFT Library
   Mihaly Kallay                                 : mrcc  (arbitrary order and MRCC methods)
   Jiri Pittner, Ondrej Demel                    : Mk-CCSD
   Frank Weinhold                                : gennbo (NPA and NBO analysis)
   Christopher J. Cramer and Donald G. Truhlar   : smd solvation model
   Lars Goerigk                                  : TD-DFT with DH, B97 family of functionals
   V. Asgeirsson, H. Jonsson                     : NEB implementation
   FAccTs GmbH                                   : IRC, NEB, NEB-TS, DLPNO-Multilevel, CI-OPT
                                                   MM, QMMM, 2- and 3-layer-ONIOM, Crystal-QMMM,
                                                   LR-CPCM, SF, NACMEs, symmetry and pop. for TD-DFT,
                                                   nearIR, NL-DFT gradient (VV10), updates on ESD,
                                                   ML-optimized integration grids
   S Lehtola, MJT Oliveira, MAL Marques          : LibXC Library
   Liviu Ungur et al                             : ANISO software


 Your calculation uses the libint2 library for the computation of 2-el integrals
 For citations please refer to: http://libint.valeyev.net

 Your ORCA version has been built with support for libXC version: 5.1.0
 For citations please refer to: https://tddft.org/programs/libxc/

 This ORCA versions uses:
   CBLAS   interface :  Fast vector & matrix operations
   LAPACKE interface :  Fast linear algebra routines
   SCALAPACK package :  Parallel linear algebra routines
   Shared memory     :  Shared parallel matrices
   BLAS/LAPACK       :  OpenBLAS 0.3.15  USE64BITINT DYNAMIC_ARCH NO_AFFINITY Zen SINGLE_THREADED
        Core in use  :  Zen
   Copyright (c) 2011-2014, The OpenBLAS Project




***************************************
The coordinates will be read from file: OPT_c60-Ih_r.xyz
***************************************


================================================================================

----- Orbital basis set information -----
Your calculation utilizes the basis: def2-TZVP
   F. Weigend and R. Ahlrichs, Phys. Chem. Chem. Phys. 7, 3297 (2005).

----- AuxJ basis set information -----
Your calculation utilizes the auxiliary basis: def2/J
   F. Weigend, Phys. Chem. Chem. Phys. 8, 1057 (2006).

================================================================================
                                        WARNINGS
                       Please study these warnings very carefully!
================================================================================

WARNING: Gradients needed for Numerical Frequencies
  ===> : Setting RunTyp to EnGrad

INFO   : the flag for use of the SHARK integral package has been found!

================================================================================
                                       INPUT FILE
================================================================================
NAME = RAM_c60-Ih_r.inp
|  1> ! PBE def2-TZVP NumFreq
|  2> # DFT functional:   PBE
|  3> # Basis:            def2-TZVP
|  4> %maxcore 3000
|  5> %pal nprocs 64
|  6> end
|  7> %base "RAM_c60-Ih_r"
|  8> %elprop
|  9>         Polar 1
| 10> end
| 11> *xyzfile 0 1 OPT_c60-Ih_r.xyz
| 12> 
| 13>                          ****END OF INPUT****
================================================================================

                     *******************************
                     * Energy+Gradient Calculation *
                     *******************************

---------------------------------
CARTESIAN COORDINATES (ANGSTROEM)
---------------------------------
  C      2.305891   -0.726124    2.601148
  C      3.032785   -1.174659    1.425983
  C      1.174659   -1.425983    3.032785
  C      2.601148   -2.305891    0.726124
  C      2.601148   -2.305891   -0.726124
  C      3.480996    0.000000    0.699471
  C      3.480996    0.000000   -0.699471
  C      3.032785   -1.174659   -1.425983
  C     -0.000000    0.699471    3.480997
  C      1.174659    1.425983    3.032785
  C     -0.000000   -0.699471    3.480997
  C      2.305891    0.726124    2.601148
  C      3.032785    1.174659    1.425983
  C      0.726124    2.601148    2.305890
  C      1.425983    3.032785    1.174658
  C      2.601148    2.305891    0.726124
  C     -2.305891   -0.726124    2.601148
  C     -2.305891    0.726124    2.601148
  C     -1.174659   -1.425983    3.032785
  C     -1.174659    1.425983    3.032785
  C     -0.726124    2.601148    2.305890
  C     -3.032785    1.174659    1.425983
  C     -2.601148    2.305890    0.726124
  C     -1.425983    3.032785    1.174658
  C     -1.425983   -3.032785    1.174658
  C     -2.601148   -2.305891    0.726124
  C     -0.726124   -2.601148    2.305890
  C     -3.032785   -1.174659    1.425983
  C     -3.480996    0.000000    0.699471
  C     -2.601148   -2.305890   -0.726124
  C     -3.032785   -1.174659   -1.425983
  C     -3.480996    0.000000   -0.699471
  C      1.425983   -3.032785    1.174658
  C      0.699471   -3.480997    0.000000
  C      0.726124   -2.601148    2.305890
  C     -0.699471   -3.480997    0.000000
  C     -1.425983   -3.032785   -1.174658
  C      1.425983   -3.032785   -1.174658
  C      0.726124   -2.601148   -2.305890
  C     -0.726124   -2.601148   -2.305890
  C     -2.305891    0.726124   -2.601148
  C     -2.305891   -0.726124   -2.601148
  C     -1.174659   -1.425983   -3.032785
  C     -1.174659    1.425983   -3.032785
  C     -1.425983    3.032785   -1.174658
  C     -2.601148    2.305891   -0.726124
  C     -3.032785    1.174659   -1.425983
  C     -0.726124    2.601148   -2.305890
  C      1.425983    3.032785   -1.174658
  C      0.699471    3.480997   -0.000000
  C     -0.699471    3.480997   -0.000000
  C      0.726124    2.601148   -2.305890
  C      2.305891    0.726124   -2.601148
  C      3.032785    1.174659   -1.425983
  C      2.601148    2.305891   -0.726124
  C      1.174659    1.425983   -3.032785
  C      0.000000   -0.699471   -3.480997
  C      1.174659   -1.425983   -3.032785
  C      2.305891   -0.726124   -2.601148
  C     -0.000000    0.699471   -3.480997

----------------------------
CARTESIAN COORDINATES (A.U.)
----------------------------
  NO LB      ZA    FRAG     MASS         X           Y           Z
   0 C     6.0000    0    12.011    4.357502   -1.372176    4.915458
   1 C     6.0000    0    12.011    5.731133   -2.219783    2.694717
   2 C     6.0000    0    12.011    2.219783   -2.694717    5.731134
   3 C     6.0000    0    12.011    4.915457   -4.357502    1.372176
   4 C     6.0000    0    12.011    4.915457   -4.357502   -1.372176
   5 C     6.0000    0    12.011    6.578130    0.000000    1.321809
   6 C     6.0000    0    12.011    6.578130    0.000000   -1.321809
   7 C     6.0000    0    12.011    5.731132   -2.219783   -2.694717
   8 C     6.0000    0    12.011   -0.000000    1.321809    6.578131
   9 C     6.0000    0    12.011    2.219783    2.694717    5.731134
  10 C     6.0000    0    12.011   -0.000000   -1.321809    6.578132
  11 C     6.0000    0    12.011    4.357502    1.372176    4.915457
  12 C     6.0000    0    12.011    5.731133    2.219783    2.694717
  13 C     6.0000    0    12.011    1.372176    4.915457    4.357501
  14 C     6.0000    0    12.011    2.694717    5.731133    2.219782
  15 C     6.0000    0    12.011    4.915457    4.357502    1.372176
  16 C     6.0000    0    12.011   -4.357502   -1.372176    4.915458
  17 C     6.0000    0    12.011   -4.357502    1.372176    4.915458
  18 C     6.0000    0    12.011   -2.219783   -2.694717    5.731134
  19 C     6.0000    0    12.011   -2.219783    2.694717    5.731134
  20 C     6.0000    0    12.011   -1.372176    4.915457    4.357501
  21 C     6.0000    0    12.011   -5.731133    2.219783    2.694717
  22 C     6.0000    0    12.011   -4.915457    4.357502    1.372176
  23 C     6.0000    0    12.011   -2.694717    5.731133    2.219782
  24 C     6.0000    0    12.011   -2.694717   -5.731133    2.219783
  25 C     6.0000    0    12.011   -4.915457   -4.357502    1.372176
  26 C     6.0000    0    12.011   -1.372176   -4.915458    4.357501
  27 C     6.0000    0    12.011   -5.731133   -2.219783    2.694717
  28 C     6.0000    0    12.011   -6.578130    0.000000    1.321809
  29 C     6.0000    0    12.011   -4.915457   -4.357502   -1.372176
  30 C     6.0000    0    12.011   -5.731132   -2.219783   -2.694717
  31 C     6.0000    0    12.011   -6.578130    0.000000   -1.321809
  32 C     6.0000    0    12.011    2.694717   -5.731133    2.219783
  33 C     6.0000    0    12.011    1.321809   -6.578130    0.000000
  34 C     6.0000    0    12.011    1.372176   -4.915458    4.357501
  35 C     6.0000    0    12.011   -1.321809   -6.578130    0.000000
  36 C     6.0000    0    12.011   -2.694717   -5.731133   -2.219782
  37 C     6.0000    0    12.011    2.694717   -5.731133   -2.219782
  38 C     6.0000    0    12.011    1.372176   -4.915458   -4.357501
  39 C     6.0000    0    12.011   -1.372176   -4.915458   -4.357501
  40 C     6.0000    0    12.011   -4.357502    1.372176   -4.915458
  41 C     6.0000    0    12.011   -4.357502   -1.372176   -4.915458
  42 C     6.0000    0    12.011   -2.219783   -2.694717   -5.731134
  43 C     6.0000    0    12.011   -2.219783    2.694717   -5.731134
  44 C     6.0000    0    12.011   -2.694717    5.731133   -2.219783
  45 C     6.0000    0    12.011   -4.915457    4.357502   -1.372176
  46 C     6.0000    0    12.011   -5.731133    2.219783   -2.694717
  47 C     6.0000    0    12.011   -1.372176    4.915458   -4.357501
  48 C     6.0000    0    12.011    2.694717    5.731133   -2.219783
  49 C     6.0000    0    12.011    1.321809    6.578130   -0.000000
  50 C     6.0000    0    12.011   -1.321809    6.578130   -0.000000
  51 C     6.0000    0    12.011    1.372176    4.915458   -4.357501
  52 C     6.0000    0    12.011    4.357502    1.372176   -4.915458
  53 C     6.0000    0    12.011    5.731133    2.219783   -2.694717
  54 C     6.0000    0    12.011    4.915457    4.357502   -1.372176
  55 C     6.0000    0    12.011    2.219783    2.694717   -5.731134
  56 C     6.0000    0    12.011    0.000000   -1.321809   -6.578131
  57 C     6.0000    0    12.011    2.219783   -2.694717   -5.731133
  58 C     6.0000    0    12.011    4.357502   -1.372176   -4.915458
  59 C     6.0000    0    12.011   -0.000000    1.321809   -6.578132

--------------------------------
INTERNAL COORDINATES (ANGSTROEM)
--------------------------------
 C      0   0   0     0.000000000000     0.00000000     0.00000000
 C      1   0   0     1.452780726669     0.00000000     0.00000000
 C      1   2   0     1.398498663678   119.99233009     0.00000000
 C      2   1   3     1.398498563740   120.00766868     0.00000000
 C      4   2   1     1.452248273172   120.02882746   138.16910086
 C      2   1   3     1.452079865161   108.02316872   142.59858257
 C      6   2   1     1.398942103460   120.02149849   217.39734571
 C      5   4   2     1.398498589044   120.02883019     0.00000000
 C      3   1   2     2.469467895538    90.57667492   221.80975403
 C      9   3   1     1.452079973588    89.41599808     0.00000000
 C      9   3   1     1.398942254637    30.60550594   180.00018899
 C     10   9   3     1.398498634677   119.94966955     0.00000000
 C      6   2   1     1.452079821756   107.98675987     0.06676860
 C     10   9   3     1.452780900002   108.02317956   142.60261794
 C     14  10   9     1.398498572525   119.99234839   217.40142144
 C     13   6   2     1.398498585504   119.94967274   217.33038921
 C     11   9   3     2.468192965699    90.61872773   221.77040198
 C     17  11   9     1.452248680171    89.38126790     0.00000000
 C     17  11   9     1.398498679608    30.64755804   179.99981102
 C     18  17  11     1.398498655166   120.02883158     0.00000000
 C     14  10   9     1.452248584397   107.98342678     0.04128101
 C     18  17  11     1.452780735615   107.98343145   142.62385455
 C     22  18  17     1.398498583567   120.00767123   217.38147339
 C     21  14  10     1.398498560133   120.02882061   217.37622894
 C     19  17  11     2.469334420623    90.63366665   221.82024850
 C     25  19  17     1.452780462627    89.37399125     0.00000000
 C     25  19  17     1.398498580771    30.63366847   179.98152852
 C     26  25  19     1.398498585778   119.99234237     0.00000000
 C     22  18  17     1.452079831499   108.02316957   359.95872887
 C     26  25  19     1.452248280029   107.98342417   142.62926980
 C     30  26  25     1.398498574353   120.02883051   217.37623252
 C     29  22  18     1.398942115967   120.02149662   217.39734811
 C      4   2   1     1.452780476195   119.99234193     0.00000000
 C     33   4   2     1.452079549820   108.02317703   142.59857715
 C     33   4   2     1.398498595038   120.00765877     0.00000000
 C     34  33   4     1.398941941491   120.02150627   217.39737154
 C     36  34  33     1.452079532958   120.02150499   138.22953486
 C     34  33   4     1.452079557424   107.98674567     0.06680085
 C     38  34  33     1.398498582756   119.94967470   217.33036253
 C     37  36  34     1.398498589107   119.94967553     0.00000000
 C     31  30  26     2.349971216173   144.00423223   100.78249204
 C     41  31  30     1.452248686797    36.01591206    63.44849143
 C     42  41  31     1.398498659439   120.02883236   217.37624719
 C     41  31  30     1.398498664076   144.03059680   359.96544491
 C     24  21  14     2.349316560697   143.98766350    37.32417489
 C     23  22  18     1.452248267581   120.02883105   138.16910530
 C     46  23  22     1.398498565994   120.02883051     0.00000000
 C     45  24  21     1.398498582921   143.98766712     0.00000000
 C     15  14  10     2.349316597688   143.98766370   100.86598136
 C     15  14  10     1.452079558987   119.94967502   138.19036329
 C     50  15  14     1.398941961646   120.02150493     0.00000000
 C     49  15  14     1.398498589072   143.98766177     0.00000000
 C      8   5   4     2.349971216730   144.00423335   259.21750877
 C      7   6   2     1.452079846084   120.02149767   138.22953276
 C     54   7   6     1.398498581818   119.94967297     0.00000000
 C     53   8   5     1.398498660840   144.03059717     0.03456126
 C     43  42  41     1.452079965830   119.94966670     0.00000000
 C     57  43  42     1.452079974473   107.98674064   142.66960607
 C     58  57  43     1.398498634885   119.94967104   217.33038243
 C     57  43  42     1.398942268749   120.02150359     0.00000000

---------------------------
INTERNAL COORDINATES (A.U.)
---------------------------
 C      0   0   0     0.000000000000     0.00000000     0.00000000
 C      1   0   0     2.745357706044     0.00000000     0.00000000
 C      1   2   0     2.642779473007   119.99233009     0.00000000
 C      2   1   3     2.642779284150   120.00766868     0.00000000
 C      4   2   1     2.744351514755   120.02882746   138.16910086
 C      2   1   3     2.744033269735   108.02316872   142.59858257
 C      6   2   1     2.643617452751   120.02149849   217.39734571
 C      5   4   2     2.642779331968   120.02883019     0.00000000
 C      3   1   2     4.666618019078    90.57667492   221.80975403
 C      9   3   1     2.744033474633    89.41599808     0.00000000
 C      9   3   1     2.643617738435    30.60550594   180.00018899
 C     10   9   3     2.642779418203   119.94966955     0.00000000
 C      6   2   1     2.744033187713   107.98675987     0.06676860
 C     10   9   3     2.745358033595   108.02317956   142.60261794
 C     14  10   9     2.642779300752   119.99234839   217.40142144
 C     13   6   2     2.642779325278   119.94967274   217.33038921
 C     11   9   3     4.664208750842    90.61872773   221.77040198
 C     17  11   9     2.744352283872    89.38126790     0.00000000
 C     17  11   9     2.642779503109    30.64755804   179.99981102
 C     18  17  11     2.642779456921   120.02883158     0.00000000
 C     14  10   9     2.744352102885   107.98342678     0.04128101
 C     18  17  11     2.745357722949   107.98343145   142.62385455
 C     22  18  17     2.642779321619   120.00767123   217.38147339
 C     21  14  10     2.642779277335   120.02882061   217.37622894
 C     19  17  11     4.666365788043    90.63366665   221.82024850
 C     25  19  17     2.745357207077    89.37399125     0.00000000
 C     25  19  17     2.642779316335    30.63366847   179.98152852
 C     26  25  19     2.642779325797   119.99234237     0.00000000
 C     22  18  17     2.744033206123   108.02316957   359.95872887
 C     26  25  19     2.744351527713   107.98342417   142.62926980
 C     30  26  25     2.642779304206   120.02883051   217.37623252
 C     29  22  18     2.643617476387   120.02149662   217.39734811
 C      4   2   1     2.745357232717   119.99234193     0.00000000
 C     33   4   2     2.744032673828   108.02317703   142.59857715
 C     33   4   2     2.642779343296   120.00765877     0.00000000
 C     34  33   4     2.643617146675   120.02150627   217.39737154
 C     36  34  33     2.744032641964   120.02150499   138.22953486
 C     34  33   4     2.744032688197   107.98674567     0.06680085
 C     38  34  33     2.642779320087   119.94967470   217.33036253
 C     37  36  34     2.642779332087   119.94967553     0.00000000
 C     31  30  26     4.440802021164   144.00423223   100.78249204
 C     41  31  30     2.744352296393    36.01591206    63.44849143
 C     42  41  31     2.642779464996   120.02883236   217.37624719
 C     41  31  30     2.642779473758   144.03059680   359.96544491
 C     24  21  14     4.439564901603   143.98766350    37.32417489
 C     23  22  18     2.744351504190   120.02883105   138.16910530
 C     46  23  22     2.642779288410   120.02883051     0.00000000
 C     45  24  21     2.642779320398   143.98766712     0.00000000
 C     15  14  10     4.439564971506   143.98766370   100.86598136
 C     15  14  10     2.744032691150   119.94967502   138.19036329
 C     50  15  14     2.643617184761   120.02150493     0.00000000
 C     49  15  14     2.642779332021   143.98766177     0.00000000
 C      8   5   4     4.440802022218   144.00423335   259.21750877
 C      7   6   2     2.744033233684   120.02149767   138.22953276
 C     54   7   6     2.642779318314   119.94967297     0.00000000
 C     53   8   5     2.642779467644   144.03059717     0.03456126
 C     43  42  41     2.744033459972   119.94966670     0.00000000
 C     57  43  42     2.744033476306   107.98674064   142.66960607
 C     58  57  43     2.642779418595   119.94967104   217.33038243
 C     57  43  42     2.643617765103   120.02150359     0.00000000

---------------------
BASIS SET INFORMATION
---------------------
There are 1 groups of distinct atoms

 Group   1 Type C   : 11s6p2d1f contracted to 5s3p2d1f pattern {62111/411/11/1}

Atom   0C    basis set group =>   1
Atom   1C    basis set group =>   1
Atom   2C    basis set group =>   1
Atom   3C    basis set group =>   1
Atom   4C    basis set group =>   1
Atom   5C    basis set group =>   1
Atom   6C    basis set group =>   1
Atom   7C    basis set group =>   1
Atom   8C    basis set group =>   1
Atom   9C    basis set group =>   1
Atom  10C    basis set group =>   1
Atom  11C    basis set group =>   1
Atom  12C    basis set group =>   1
Atom  13C    basis set group =>   1
Atom  14C    basis set group =>   1
Atom  15C    basis set group =>   1
Atom  16C    basis set group =>   1
Atom  17C    basis set group =>   1
Atom  18C    basis set group =>   1
Atom  19C    basis set group =>   1
Atom  20C    basis set group =>   1
Atom  21C    basis set group =>   1
Atom  22C    basis set group =>   1
Atom  23C    basis set group =>   1
Atom  24C    basis set group =>   1
Atom  25C    basis set group =>   1
Atom  26C    basis set group =>   1
Atom  27C    basis set group =>   1
Atom  28C    basis set group =>   1
Atom  29C    basis set group =>   1
Atom  30C    basis set group =>   1
Atom  31C    basis set group =>   1
Atom  32C    basis set group =>   1
Atom  33C    basis set group =>   1
Atom  34C    basis set group =>   1
Atom  35C    basis set group =>   1
Atom  36C    basis set group =>   1
Atom  37C    basis set group =>   1
Atom  38C    basis set group =>   1
Atom  39C    basis set group =>   1
Atom  40C    basis set group =>   1
Atom  41C    basis set group =>   1
Atom  42C    basis set group =>   1
Atom  43C    basis set group =>   1
Atom  44C    basis set group =>   1
Atom  45C    basis set group =>   1
Atom  46C    basis set group =>   1
Atom  47C    basis set group =>   1
Atom  48C    basis set group =>   1
Atom  49C    basis set group =>   1
Atom  50C    basis set group =>   1
Atom  51C    basis set group =>   1
Atom  52C    basis set group =>   1
Atom  53C    basis set group =>   1
Atom  54C    basis set group =>   1
Atom  55C    basis set group =>   1
Atom  56C    basis set group =>   1
Atom  57C    basis set group =>   1
Atom  58C    basis set group =>   1
Atom  59C    basis set group =>   1
---------------------------------
AUXILIARY/J BASIS SET INFORMATION
---------------------------------
There are 1 groups of distinct atoms

 Group   1 Type C   : 12s5p4d2f1g contracted to 6s4p3d1f1g pattern {711111/2111/211/2/1}

Atom   0C    basis set group =>   1
Atom   1C    basis set group =>   1
Atom   2C    basis set group =>   1
Atom   3C    basis set group =>   1
Atom   4C    basis set group =>   1
Atom   5C    basis set group =>   1
Atom   6C    basis set group =>   1
Atom   7C    basis set group =>   1
Atom   8C    basis set group =>   1
Atom   9C    basis set group =>   1
Atom  10C    basis set group =>   1
Atom  11C    basis set group =>   1
Atom  12C    basis set group =>   1
Atom  13C    basis set group =>   1
Atom  14C    basis set group =>   1
Atom  15C    basis set group =>   1
Atom  16C    basis set group =>   1
Atom  17C    basis set group =>   1
Atom  18C    basis set group =>   1
Atom  19C    basis set group =>   1
Atom  20C    basis set group =>   1
Atom  21C    basis set group =>   1
Atom  22C    basis set group =>   1
Atom  23C    basis set group =>   1
Atom  24C    basis set group =>   1
Atom  25C    basis set group =>   1
Atom  26C    basis set group =>   1
Atom  27C    basis set group =>   1
Atom  28C    basis set group =>   1
Atom  29C    basis set group =>   1
Atom  30C    basis set group =>   1
Atom  31C    basis set group =>   1
Atom  32C    basis set group =>   1
Atom  33C    basis set group =>   1
Atom  34C    basis set group =>   1
Atom  35C    basis set group =>   1
Atom  36C    basis set group =>   1
Atom  37C    basis set group =>   1
Atom  38C    basis set group =>   1
Atom  39C    basis set group =>   1
Atom  40C    basis set group =>   1
Atom  41C    basis set group =>   1
Atom  42C    basis set group =>   1
Atom  43C    basis set group =>   1
Atom  44C    basis set group =>   1
Atom  45C    basis set group =>   1
Atom  46C    basis set group =>   1
Atom  47C    basis set group =>   1
Atom  48C    basis set group =>   1
Atom  49C    basis set group =>   1
Atom  50C    basis set group =>   1
Atom  51C    basis set group =>   1
Atom  52C    basis set group =>   1
Atom  53C    basis set group =>   1
Atom  54C    basis set group =>   1
Atom  55C    basis set group =>   1
Atom  56C    basis set group =>   1
Atom  57C    basis set group =>   1
Atom  58C    basis set group =>   1
Atom  59C    basis set group =>   1


           ************************************************************
           *        Program running with 64 parallel MPI-processes    *
           *              working on a common directory               *
           ************************************************************
------------------------------------------------------------------------------
                           ORCA GTO INTEGRAL CALCULATION
                           -- RI-GTO INTEGRALS CHOSEN --
------------------------------------------------------------------------------
------------------------------------------------------------------------------
                   ___                                                        
                  /   \      - P O W E R E D   B Y -                         
                 /     \                                                     
                 |  |  |   _    _      __       _____    __    __             
                 |  |  |  | |  | |    /  \     |  _  \  |  |  /  |          
                  \  \/   | |  | |   /    \    | | | |  |  | /  /          
                 / \  \   | |__| |  /  /\  \   | |_| |  |  |/  /          
                |  |  |   |  __  | /  /__\  \  |    /   |      \           
                |  |  |   | |  | | |   __   |  |    \   |  |\   \          
                \     /   | |  | | |  |  |  |  | |\  \  |  | \   \       
                 \___/    |_|  |_| |__|  |__|  |_| \__\ |__|  \__/        
                                                                              
                      - O R C A' S   B I G   F R I E N D -                    
                                      &                                       
                       - I N T E G R A L  F E E D E R -                       
                                                                              
 v1 FN, 2020, v2 2021                                                         
------------------------------------------------------------------------------


Reading SHARK input file RAM_c60-Ih_r.SHARKINP.tmp ... ok
----------------------
SHARK INTEGRAL PACKAGE
----------------------

Number of atoms                             ...     60
Number of basis functions                   ...   1860
Number of shells                            ...    660
Maximum angular momentum                    ...      3
Integral batch strategy                     ... SHARK/LIBINT Hybrid
RI-J (if used) integral strategy            ... SPLIT-RIJ (Revised 2003 algorithm where possible)
Printlevel                                  ...      1
Contraction scheme used                     ... SEGMENTED contraction
Coulomb Range Separation                    ... NOT USED
Exchange Range Separation                   ... NOT USED
Finite Nucleus Model                        ... NOT USED
Auxiliary Coulomb fitting basis             ... AVAILABLE
   # of basis functions in Aux-J            ...   2940
   # of shells in Aux-J                     ...    900
   Maximum angular momentum in Aux-J        ...      4
Auxiliary J/K fitting basis                 ... NOT available
Auxiliary Correlation fitting basis         ... NOT available
Auxiliary 'external' fitting basis          ... NOT available
Integral threshold                          ...     2.500000e-11
Primitive cut-off                           ...     2.500000e-12
Primitive pair pre-selection threshold      ...     2.500000e-12

Calculating pre-screening integrals         ... done (  0.1 sec) Dimension = 660
Organizing shell pair data                  ... done (  2.1 sec)
Shell pair information
Total number of shell pairs                 ...    218130
Shell pairs after pre-screening             ...    156468
Total number of primitive shell pairs       ...    721920
Primitive shell pairs kept                  ...    311202
          la=0 lb=0:  29544 shell pairs
          la=1 lb=0:  41640 shell pairs
          la=1 lb=1:  14526 shell pairs
          la=2 lb=0:  23304 shell pairs
          la=2 lb=1:  17880 shell pairs
          la=2 lb=2:   5128 shell pairs
          la=3 lb=0:  10560 shell pairs
          la=3 lb=1:   8352 shell pairs
          la=3 lb=2:   4600 shell pairs
          la=3 lb=3:    934 shell pairs

Calculating one electron integrals          ... done (  0.2 sec)
Calculating RI/J V-Matrix + Cholesky decomp.... done (  1.0 sec)
Calculating Nuclear repulsion               ... done (  0.0 sec) ENN=   8324.291217734770 Eh

SHARK setup successfully completed in   5.3 seconds

Maximum memory used throughout the entire GTOINT-calculation: 238.3 MB
[1661864767.854969] [nc20650:783954:0]          mpool.c:42   UCX  WARN  object 0xba23100 was not returned to mpool ucp_requests
[1661864767.854990] [nc20650:783954:0]          mpool.c:42   UCX  WARN  object 0xba232c0 was not returned to mpool ucp_requests
[1661864767.854996] [nc20650:783954:0]          mpool.c:42   UCX  WARN  object 0xba23480 was not returned to mpool ucp_requests
[1661864767.854999] [nc20650:783954:0]          mpool.c:42   UCX  WARN  object 0xba23640 was not returned to mpool ucp_requests
[1661864767.855002] [nc20650:783954:0]          mpool.c:42   UCX  WARN  object 0xba23800 was not returned to mpool ucp_requests
[1661864767.855005] [nc20650:783954:0]          mpool.c:42   UCX  WARN  object 0xba239c0 was not returned to mpool ucp_requests
[1661864767.855008] [nc20650:783954:0]          mpool.c:42   UCX  WARN  object 0xba23b80 was not returned to mpool ucp_requests
[1661864767.855011] [nc20650:783954:0]          mpool.c:42   UCX  WARN  object 0xba23d40 was not returned to mpool ucp_requests
[1661864767.855014] [nc20650:783954:0]          mpool.c:42   UCX  WARN  object 0xba23f00 was not returned to mpool ucp_requests
[1661864767.855018] [nc20650:783954:0]          mpool.c:42   UCX  WARN  object 0xba240c0 was not returned to mpool ucp_requests
[1661864767.855021] [nc20650:783954:0]          mpool.c:42   UCX  WARN  object 0xba24280 was not returned to mpool ucp_requests
[1661864767.855024] [nc20650:783954:0]          mpool.c:42   UCX  WARN  object 0xba24440 was not returned to mpool ucp_requests
[1661864767.855264] [nc20650:784099:0]          mpool.c:42   UCX  WARN  object 0xb3e21c0 was not returned to mpool ucp_requests
[1661864767.855286] [nc20650:784099:0]          mpool.c:42   UCX  WARN  object 0xb3e2380 was not returned to mpool ucp_requests
[1661864767.855291] [nc20650:784099:0]          mpool.c:42   UCX  WARN  object 0xb3e2540 was not returned to mpool ucp_requests
[1661864767.855295] [nc20650:784099:0]          mpool.c:42   UCX  WARN  object 0xb3e2700 was not returned to mpool ucp_requests
[1661864767.855298] [nc20650:784099:0]          mpool.c:42   UCX  WARN  object 0xb3e28c0 was not returned to mpool ucp_requests
[1661864767.855303] [nc20650:784099:0]          mpool.c:42   UCX  WARN  object 0xb3e2a80 was not returned to mpool ucp_requests
[1661864767.855307] [nc20650:784099:0]          mpool.c:42   UCX  WARN  object 0xb3e2c40 was not returned to mpool ucp_requests
[1661864767.855311] [nc20650:784099:0]          mpool.c:42   UCX  WARN  object 0xb3e2e00 was not returned to mpool ucp_requests
[1661864767.855314] [nc20650:784099:0]          mpool.c:42   UCX  WARN  object 0xb3e2fc0 was not returned to mpool ucp_requests
[1661864767.855319] [nc20650:784099:0]          mpool.c:42   UCX  WARN  object 0xb3e3180 was not returned to mpool ucp_requests
[1661864767.855323] [nc20650:784099:0]          mpool.c:42   UCX  WARN  object 0xb3e3340 was not returned to mpool ucp_requests
[1661864767.855598] [nc20650:784046:0]          mpool.c:42   UCX  WARN  object 0xb198440 was not returned to mpool ucp_requests
[1661864767.855618] [nc20650:784046:0]          mpool.c:42   UCX  WARN  object 0xb198600 was not returned to mpool ucp_requests
[1661864767.855624] [nc20650:784046:0]          mpool.c:42   UCX  WARN  object 0xb1987c0 was not returned to mpool ucp_requests
[1661864767.855628] [nc20650:784046:0]          mpool.c:42   UCX  WARN  object 0xb198980 was not returned to mpool ucp_requests
[1661864767.855631] [nc20650:784046:0]          mpool.c:42   UCX  WARN  object 0xb198b40 was not returned to mpool ucp_requests
[1661864767.855634] [nc20650:784046:0]          mpool.c:42   UCX  WARN  object 0xb198d00 was not returned to mpool ucp_requests
[1661864767.855639] [nc20650:784046:0]          mpool.c:42   UCX  WARN  object 0xb198ec0 was not returned to mpool ucp_requests
[1661864767.855643] [nc20650:784046:0]          mpool.c:42   UCX  WARN  object 0xb199080 was not returned to mpool ucp_requests
[1661864767.855646] [nc20650:784046:0]          mpool.c:42   UCX  WARN  object 0xb199240 was not returned to mpool ucp_requests
[1661864767.855650] [nc20650:784046:0]          mpool.c:42   UCX  WARN  object 0xb199400 was not returned to mpool ucp_requests
[1661864767.855653] [nc20650:784046:0]          mpool.c:42   UCX  WARN  object 0xb1995c0 was not returned to mpool ucp_requests
[1661864767.856121] [nc20650:784016:0]          mpool.c:42   UCX  WARN  object 0xbe04940 was not returned to mpool ucp_requests
[1661864767.856138] [nc20650:784016:0]          mpool.c:42   UCX  WARN  object 0xbe04b00 was not returned to mpool ucp_requests
[1661864767.856142] [nc20650:784016:0]          mpool.c:42   UCX  WARN  object 0xbe04cc0 was not returned to mpool ucp_requests
[1661864767.856148] [nc20650:784016:0]          mpool.c:42   UCX  WARN  object 0xbe04e80 was not returned to mpool ucp_requests
[1661864767.856151] [nc20650:784016:0]          mpool.c:42   UCX  WARN  object 0xbe05040 was not returned to mpool ucp_requests
[1661864767.856155] [nc20650:784016:0]          mpool.c:42   UCX  WARN  object 0xbe05200 was not returned to mpool ucp_requests
[1661864767.856159] [nc20650:784016:0]          mpool.c:42   UCX  WARN  object 0xbe053c0 was not returned to mpool ucp_requests
[1661864767.856163] [nc20650:784016:0]          mpool.c:42   UCX  WARN  object 0xbe05580 was not returned to mpool ucp_requests
[1661864767.856167] [nc20650:784016:0]          mpool.c:42   UCX  WARN  object 0xbe05740 was not returned to mpool ucp_requests
[1661864767.856171] [nc20650:784016:0]          mpool.c:42   UCX  WARN  object 0xbe05900 was not returned to mpool ucp_requests
[1661864767.856174] [nc20650:784016:0]          mpool.c:42   UCX  WARN  object 0xbe05ac0 was not returned to mpool ucp_requests
[1661864767.856192] [nc20650:784003:0]          mpool.c:42   UCX  WARN  object 0xbde9300 was not returned to mpool ucp_requests
[1661864767.856214] [nc20650:784003:0]          mpool.c:42   UCX  WARN  object 0xbde94c0 was not returned to mpool ucp_requests
[1661864767.856220] [nc20650:784003:0]          mpool.c:42   UCX  WARN  object 0xbde9680 was not returned to mpool ucp_requests
[1661864767.856224] [nc20650:784003:0]          mpool.c:42   UCX  WARN  object 0xbde9840 was not returned to mpool ucp_requests
[1661864767.856228] [nc20650:784003:0]          mpool.c:42   UCX  WARN  object 0xbde9a00 was not returned to mpool ucp_requests
[1661864767.856232] [nc20650:784003:0]          mpool.c:42   UCX  WARN  object 0xbde9bc0 was not returned to mpool ucp_requests
[1661864767.856236] [nc20650:784003:0]          mpool.c:42   UCX  WARN  object 0xbde9d80 was not returned to mpool ucp_requests
[1661864767.856240] [nc20650:784003:0]          mpool.c:42   UCX  WARN  object 0xbde9f40 was not returned to mpool ucp_requests
[1661864767.856244] [nc20650:784003:0]          mpool.c:42   UCX  WARN  object 0xbdea100 was not returned to mpool ucp_requests
[1661864767.856248] [nc20650:784003:0]          mpool.c:42   UCX  WARN  object 0xbdea2c0 was not returned to mpool ucp_requests
[1661864767.856252] [nc20650:784003:0]          mpool.c:42   UCX  WARN  object 0xbdea480 was not returned to mpool ucp_requests
[1661864767.856256] [nc20650:784003:0]          mpool.c:42   UCX  WARN  object 0xbdea640 was not returned to mpool ucp_requests
[1661864767.856260] [nc20650:784003:0]          mpool.c:42   UCX  WARN  object 0xbdea800 was not returned to mpool ucp_requests
[1661864767.856490] [nc20650:783986:0]          mpool.c:42   UCX  WARN  object 0xacba200 was not returned to mpool ucp_requests
[1661864767.856510] [nc20650:783986:0]          mpool.c:42   UCX  WARN  object 0xacba3c0 was not returned to mpool ucp_requests
[1661864767.856519] [nc20650:783986:0]          mpool.c:42   UCX  WARN  object 0xacba580 was not returned to mpool ucp_requests
[1661864767.856524] [nc20650:783986:0]          mpool.c:42   UCX  WARN  object 0xacba740 was not returned to mpool ucp_requests
[1661864767.856528] [nc20650:783986:0]          mpool.c:42   UCX  WARN  object 0xacba900 was not returned to mpool ucp_requests
[1661864767.856532] [nc20650:783986:0]          mpool.c:42   UCX  WARN  object 0xacbaac0 was not returned to mpool ucp_requests
[1661864767.856535] [nc20650:783986:0]          mpool.c:42   UCX  WARN  object 0xacbac80 was not returned to mpool ucp_requests
[1661864767.856544] [nc20650:783986:0]          mpool.c:42   UCX  WARN  object 0xacbae40 was not returned to mpool ucp_requests
[1661864767.856547] [nc20650:783986:0]          mpool.c:42   UCX  WARN  object 0xacbb000 was not returned to mpool ucp_requests
[1661864767.856549] [nc20650:783986:0]          mpool.c:42   UCX  WARN  object 0xacbb1c0 was not returned to mpool ucp_requests
[1661864767.856551] [nc20650:783986:0]          mpool.c:42   UCX  WARN  object 0xacbb380 was not returned to mpool ucp_requests
[1661864767.856553] [nc20650:783986:0]          mpool.c:42   UCX  WARN  object 0xacbb540 was not returned to mpool ucp_requests
[1661864767.857361] [nc20650:784182:0]          mpool.c:42   UCX  WARN  object 0xbdf12c0 was not returned to mpool ucp_requests
[1661864767.857382] [nc20650:784182:0]          mpool.c:42   UCX  WARN  object 0xbdf1480 was not returned to mpool ucp_requests
[1661864767.857386] [nc20650:784182:0]          mpool.c:42   UCX  WARN  object 0xbdf1640 was not returned to mpool ucp_requests
[1661864767.857389] [nc20650:784182:0]          mpool.c:42   UCX  WARN  object 0xbdf1800 was not returned to mpool ucp_requests
[1661864767.857391] [nc20650:784182:0]          mpool.c:42   UCX  WARN  object 0xbdf19c0 was not returned to mpool ucp_requests
[1661864767.857393] [nc20650:784182:0]          mpool.c:42   UCX  WARN  object 0xbdf1b80 was not returned to mpool ucp_requests
[1661864767.857395] [nc20650:784182:0]          mpool.c:42   UCX  WARN  object 0xbdf1d40 was not returned to mpool ucp_requests
[1661864767.857397] [nc20650:784182:0]          mpool.c:42   UCX  WARN  object 0xbdf1f00 was not returned to mpool ucp_requests
[1661864767.857400] [nc20650:784182:0]          mpool.c:42   UCX  WARN  object 0xbdf20c0 was not returned to mpool ucp_requests
[1661864767.857402] [nc20650:784182:0]          mpool.c:42   UCX  WARN  object 0xbdf2280 was not returned to mpool ucp_requests
[1661864767.857404] [nc20650:784182:0]          mpool.c:42   UCX  WARN  object 0xbdf2440 was not returned to mpool ucp_requests
[1661864767.857959] [nc20650:784080:0]          mpool.c:42   UCX  WARN  object 0xc4872c0 was not returned to mpool ucp_requests
[1661864767.857980] [nc20650:784080:0]          mpool.c:42   UCX  WARN  object 0xc487480 was not returned to mpool ucp_requests
[1661864767.857986] [nc20650:784080:0]          mpool.c:42   UCX  WARN  object 0xc487640 was not returned to mpool ucp_requests
[1661864767.857989] [nc20650:784080:0]          mpool.c:42   UCX  WARN  object 0xc487800 was not returned to mpool ucp_requests
[1661864767.857992] [nc20650:784080:0]          mpool.c:42   UCX  WARN  object 0xc4879c0 was not returned to mpool ucp_requests
[1661864767.857996] [nc20650:784080:0]          mpool.c:42   UCX  WARN  object 0xc487b80 was not returned to mpool ucp_requests
[1661864767.858000] [nc20650:784080:0]          mpool.c:42   UCX  WARN  object 0xc487d40 was not returned to mpool ucp_requests
[1661864767.858005] [nc20650:784080:0]          mpool.c:42   UCX  WARN  object 0xc487f00 was not returned to mpool ucp_requests
[1661864767.858008] [nc20650:784080:0]          mpool.c:42   UCX  WARN  object 0xc4880c0 was not returned to mpool ucp_requests
[1661864767.858013] [nc20650:784080:0]          mpool.c:42   UCX  WARN  object 0xc488280 was not returned to mpool ucp_requests
[1661864767.858015] [nc20650:784080:0]          mpool.c:42   UCX  WARN  object 0xc488440 was not returned to mpool ucp_requests
[1661864767.861848] [nc20650:783990:0]          mpool.c:42   UCX  WARN  object 0xb310f40 was not returned to mpool ucp_requests
[1661864767.861866] [nc20650:783990:0]          mpool.c:42   UCX  WARN  object 0xb311100 was not returned to mpool ucp_requests
[1661864767.861869] [nc20650:783990:0]          mpool.c:42   UCX  WARN  object 0xb3112c0 was not returned to mpool ucp_requests
[1661864767.861872] [nc20650:783990:0]          mpool.c:42   UCX  WARN  object 0xb311480 was not returned to mpool ucp_requests
[1661864767.861874] [nc20650:783990:0]          mpool.c:42   UCX  WARN  object 0xb311640 was not returned to mpool ucp_requests
[1661864767.861876] [nc20650:783990:0]          mpool.c:42   UCX  WARN  object 0xb311800 was not returned to mpool ucp_requests
[1661864767.861878] [nc20650:783990:0]          mpool.c:42   UCX  WARN  object 0xb3119c0 was not returned to mpool ucp_requests
[1661864767.861881] [nc20650:783990:0]          mpool.c:42   UCX  WARN  object 0xb311b80 was not returned to mpool ucp_requests
[1661864767.861883] [nc20650:783990:0]          mpool.c:42   UCX  WARN  object 0xb311d40 was not returned to mpool ucp_requests
[1661864767.861885] [nc20650:783990:0]          mpool.c:42   UCX  WARN  object 0xb311f00 was not returned to mpool ucp_requests
[1661864767.861887] [nc20650:783990:0]          mpool.c:42   UCX  WARN  object 0xb3120c0 was not returned to mpool ucp_requests
[1661864767.861889] [nc20650:783990:0]          mpool.c:42   UCX  WARN  object 0xb312280 was not returned to mpool ucp_requests
[1661864767.861891] [nc20650:783990:0]          mpool.c:42   UCX  WARN  object 0xb312440 was not returned to mpool ucp_requests
[1661864767.862888] [nc20650:784190:0]          mpool.c:42   UCX  WARN  object 0xb2571c0 was not returned to mpool ucp_requests
[1661864767.862908] [nc20650:784190:0]          mpool.c:42   UCX  WARN  object 0xb257380 was not returned to mpool ucp_requests
[1661864767.862914] [nc20650:784190:0]          mpool.c:42   UCX  WARN  object 0xb257540 was not returned to mpool ucp_requests
[1661864767.862918] [nc20650:784190:0]          mpool.c:42   UCX  WARN  object 0xb257700 was not returned to mpool ucp_requests
[1661864767.862920] [nc20650:784190:0]          mpool.c:42   UCX  WARN  object 0xb2578c0 was not returned to mpool ucp_requests
[1661864767.862924] [nc20650:784190:0]          mpool.c:42   UCX  WARN  object 0xb257a80 was not returned to mpool ucp_requests
[1661864767.862928] [nc20650:784190:0]          mpool.c:42   UCX  WARN  object 0xb257c40 was not returned to mpool ucp_requests
[1661864767.862932] [nc20650:784190:0]          mpool.c:42   UCX  WARN  object 0xb257e00 was not returned to mpool ucp_requests
[1661864767.862936] [nc20650:784190:0]          mpool.c:42   UCX  WARN  object 0xb257fc0 was not returned to mpool ucp_requests
[1661864767.862940] [nc20650:784190:0]          mpool.c:42   UCX  WARN  object 0xb258180 was not returned to mpool ucp_requests
[1661864767.862944] [nc20650:784190:0]          mpool.c:42   UCX  WARN  object 0xb258340 was not returned to mpool ucp_requests
[1661864767.862978] [nc20650:783984:0]          mpool.c:42   UCX  WARN  object 0xc32b100 was not returned to mpool ucp_requests
[1661864767.862991] [nc20650:783984:0]          mpool.c:42   UCX  WARN  object 0xc32b2c0 was not returned to mpool ucp_requests
[1661864767.862994] [nc20650:783984:0]          mpool.c:42   UCX  WARN  object 0xc32b480 was not returned to mpool ucp_requests
[1661864767.862997] [nc20650:783984:0]          mpool.c:42   UCX  WARN  object 0xc32b640 was not returned to mpool ucp_requests
[1661864767.862999] [nc20650:783984:0]          mpool.c:42   UCX  WARN  object 0xc32b800 was not returned to mpool ucp_requests
[1661864767.863001] [nc20650:783984:0]          mpool.c:42   UCX  WARN  object 0xc32b9c0 was not returned to mpool ucp_requests
[1661864767.863004] [nc20650:783984:0]          mpool.c:42   UCX  WARN  object 0xc32bb80 was not returned to mpool ucp_requests
[1661864767.863006] [nc20650:783984:0]          mpool.c:42   UCX  WARN  object 0xc32bd40 was not returned to mpool ucp_requests
[1661864767.863008] [nc20650:783984:0]          mpool.c:42   UCX  WARN  object 0xc32bf00 was not returned to mpool ucp_requests
[1661864767.863010] [nc20650:783984:0]          mpool.c:42   UCX  WARN  object 0xc32c0c0 was not returned to mpool ucp_requests
[1661864767.863012] [nc20650:783984:0]          mpool.c:42   UCX  WARN  object 0xc32c280 was not returned to mpool ucp_requests
[1661864767.863014] [nc20650:783984:0]          mpool.c:42   UCX  WARN  object 0xc32c440 was not returned to mpool ucp_requests
[1661864767.863228] [nc20650:784026:0]          mpool.c:42   UCX  WARN  object 0xbba3f80 was not returned to mpool ucp_requests
[1661864767.863251] [nc20650:784026:0]          mpool.c:42   UCX  WARN  object 0xbba4140 was not returned to mpool ucp_requests
[1661864767.863256] [nc20650:784026:0]          mpool.c:42   UCX  WARN  object 0xbba4300 was not returned to mpool ucp_requests
[1661864767.863260] [nc20650:784026:0]          mpool.c:42   UCX  WARN  object 0xbba44c0 was not returned to mpool ucp_requests
[1661864767.863263] [nc20650:784026:0]          mpool.c:42   UCX  WARN  object 0xbba4680 was not returned to mpool ucp_requests
[1661864767.863268] [nc20650:784026:0]          mpool.c:42   UCX  WARN  object 0xbba4840 was not returned to mpool ucp_requests
[1661864767.863271] [nc20650:784026:0]          mpool.c:42   UCX  WARN  object 0xbba4a00 was not returned to mpool ucp_requests
[1661864767.863275] [nc20650:784026:0]          mpool.c:42   UCX  WARN  object 0xbba4bc0 was not returned to mpool ucp_requests
[1661864767.863278] [nc20650:784026:0]          mpool.c:42   UCX  WARN  object 0xbba4d80 was not returned to mpool ucp_requests
[1661864767.863284] [nc20650:784026:0]          mpool.c:42   UCX  WARN  object 0xbba4f40 was not returned to mpool ucp_requests
[1661864767.863288] [nc20650:784026:0]          mpool.c:42   UCX  WARN  object 0xbba5100 was not returned to mpool ucp_requests
[1661864767.863756] [nc20650:783989:0]          mpool.c:42   UCX  WARN  object 0xc2d4cc0 was not returned to mpool ucp_requests
[1661864767.863771] [nc20650:783989:0]          mpool.c:42   UCX  WARN  object 0xc2d4e80 was not returned to mpool ucp_requests
[1661864767.863775] [nc20650:783989:0]          mpool.c:42   UCX  WARN  object 0xc2d5040 was not returned to mpool ucp_requests
[1661864767.863777] [nc20650:783989:0]          mpool.c:42   UCX  WARN  object 0xc2d5200 was not returned to mpool ucp_requests
[1661864767.863779] [nc20650:783989:0]          mpool.c:42   UCX  WARN  object 0xc2d53c0 was not returned to mpool ucp_requests
[1661864767.863782] [nc20650:783989:0]          mpool.c:42   UCX  WARN  object 0xc2d5580 was not returned to mpool ucp_requests
[1661864767.863789] [nc20650:783989:0]          mpool.c:42   UCX  WARN  object 0xc2d5740 was not returned to mpool ucp_requests
[1661864767.863792] [nc20650:783989:0]          mpool.c:42   UCX  WARN  object 0xc2d5900 was not returned to mpool ucp_requests
[1661864767.863794] [nc20650:783989:0]          mpool.c:42   UCX  WARN  object 0xc2d5ac0 was not returned to mpool ucp_requests
[1661864767.863796] [nc20650:783989:0]          mpool.c:42   UCX  WARN  object 0xc2d5c80 was not returned to mpool ucp_requests
[1661864767.863798] [nc20650:783989:0]          mpool.c:42   UCX  WARN  object 0xc2d5e40 was not returned to mpool ucp_requests
[1661864767.863800] [nc20650:783989:0]          mpool.c:42   UCX  WARN  object 0xc2d6000 was not returned to mpool ucp_requests
[1661864767.863803] [nc20650:783989:0]          mpool.c:42   UCX  WARN  object 0xc2d61c0 was not returned to mpool ucp_requests
[1661864767.864866] [nc20650:784200:0]          mpool.c:42   UCX  WARN  object 0xb7312c0 was not returned to mpool ucp_requests
[1661864767.864885] [nc20650:784200:0]          mpool.c:42   UCX  WARN  object 0xb731480 was not returned to mpool ucp_requests
[1661864767.864889] [nc20650:784200:0]          mpool.c:42   UCX  WARN  object 0xb731640 was not returned to mpool ucp_requests
[1661864767.864891] [nc20650:784200:0]          mpool.c:42   UCX  WARN  object 0xb731800 was not returned to mpool ucp_requests
[1661864767.864893] [nc20650:784200:0]          mpool.c:42   UCX  WARN  object 0xb7319c0 was not returned to mpool ucp_requests
[1661864767.864896] [nc20650:784200:0]          mpool.c:42   UCX  WARN  object 0xb731b80 was not returned to mpool ucp_requests
[1661864767.864898] [nc20650:784200:0]          mpool.c:42   UCX  WARN  object 0xb731d40 was not returned to mpool ucp_requests
[1661864767.864900] [nc20650:784200:0]          mpool.c:42   UCX  WARN  object 0xb731f00 was not returned to mpool ucp_requests
[1661864767.864902] [nc20650:784200:0]          mpool.c:42   UCX  WARN  object 0xb7320c0 was not returned to mpool ucp_requests
[1661864767.864904] [nc20650:784200:0]          mpool.c:42   UCX  WARN  object 0xb732280 was not returned to mpool ucp_requests
[1661864767.864906] [nc20650:784200:0]          mpool.c:42   UCX  WARN  object 0xb732440 was not returned to mpool ucp_requests
[1661864767.864812] [nc20650:784083:0]          mpool.c:42   UCX  WARN  object 0xaae11c0 was not returned to mpool ucp_requests
[1661864767.864827] [nc20650:784083:0]          mpool.c:42   UCX  WARN  object 0xaae1380 was not returned to mpool ucp_requests
[1661864767.864830] [nc20650:784083:0]          mpool.c:42   UCX  WARN  object 0xaae1540 was not returned to mpool ucp_requests
[1661864767.864833] [nc20650:784083:0]          mpool.c:42   UCX  WARN  object 0xaae1700 was not returned to mpool ucp_requests
[1661864767.864835] [nc20650:784083:0]          mpool.c:42   UCX  WARN  object 0xaae18c0 was not returned to mpool ucp_requests
[1661864767.864838] [nc20650:784083:0]          mpool.c:42   UCX  WARN  object 0xaae1a80 was not returned to mpool ucp_requests
[1661864767.864840] [nc20650:784083:0]          mpool.c:42   UCX  WARN  object 0xaae1c40 was not returned to mpool ucp_requests
[1661864767.864842] [nc20650:784083:0]          mpool.c:42   UCX  WARN  object 0xaae1e00 was not returned to mpool ucp_requests
[1661864767.864844] [nc20650:784083:0]          mpool.c:42   UCX  WARN  object 0xaae1fc0 was not returned to mpool ucp_requests
[1661864767.864846] [nc20650:784083:0]          mpool.c:42   UCX  WARN  object 0xaae2180 was not returned to mpool ucp_requests
[1661864767.864848] [nc20650:784083:0]          mpool.c:42   UCX  WARN  object 0xaae2340 was not returned to mpool ucp_requests
[1661864767.866335] [nc20650:783977:0]          mpool.c:42   UCX  WARN  object 0xae8b100 was not returned to mpool ucp_requests
[1661864767.866354] [nc20650:783977:0]          mpool.c:42   UCX  WARN  object 0xae8b2c0 was not returned to mpool ucp_requests
[1661864767.866360] [nc20650:783977:0]          mpool.c:42   UCX  WARN  object 0xae8b480 was not returned to mpool ucp_requests
[1661864767.866362] [nc20650:783977:0]          mpool.c:42   UCX  WARN  object 0xae8b640 was not returned to mpool ucp_requests
[1661864767.866366] [nc20650:783977:0]          mpool.c:42   UCX  WARN  object 0xae8b800 was not returned to mpool ucp_requests
[1661864767.866370] [nc20650:783977:0]          mpool.c:42   UCX  WARN  object 0xae8b9c0 was not returned to mpool ucp_requests
[1661864767.866374] [nc20650:783977:0]          mpool.c:42   UCX  WARN  object 0xae8bb80 was not returned to mpool ucp_requests
[1661864767.866377] [nc20650:783977:0]          mpool.c:42   UCX  WARN  object 0xae8bd40 was not returned to mpool ucp_requests
[1661864767.866380] [nc20650:783977:0]          mpool.c:42   UCX  WARN  object 0xae8bf00 was not returned to mpool ucp_requests
[1661864767.866383] [nc20650:783977:0]          mpool.c:42   UCX  WARN  object 0xae8c0c0 was not returned to mpool ucp_requests
[1661864767.866387] [nc20650:783977:0]          mpool.c:42   UCX  WARN  object 0xae8c280 was not returned to mpool ucp_requests
[1661864767.866390] [nc20650:783977:0]          mpool.c:42   UCX  WARN  object 0xae8c440 was not returned to mpool ucp_requests
[1661864767.866392] [nc20650:784201:0]          mpool.c:42   UCX  WARN  object 0xbf014c0 was not returned to mpool ucp_requests
[1661864767.866415] [nc20650:784201:0]          mpool.c:42   UCX  WARN  object 0xbf01680 was not returned to mpool ucp_requests
[1661864767.866420] [nc20650:784201:0]          mpool.c:42   UCX  WARN  object 0xbf01840 was not returned to mpool ucp_requests
[1661864767.866424] [nc20650:784201:0]          mpool.c:42   UCX  WARN  object 0xbf01a00 was not returned to mpool ucp_requests
[1661864767.866427] [nc20650:784201:0]          mpool.c:42   UCX  WARN  object 0xbf01bc0 was not returned to mpool ucp_requests
[1661864767.866431] [nc20650:784201:0]          mpool.c:42   UCX  WARN  object 0xbf01d80 was not returned to mpool ucp_requests
[1661864767.866435] [nc20650:784201:0]          mpool.c:42   UCX  WARN  object 0xbf01f40 was not returned to mpool ucp_requests
[1661864767.866439] [nc20650:784201:0]          mpool.c:42   UCX  WARN  object 0xbf02100 was not returned to mpool ucp_requests
[1661864767.866442] [nc20650:784201:0]          mpool.c:42   UCX  WARN  object 0xbf022c0 was not returned to mpool ucp_requests
[1661864767.866446] [nc20650:784201:0]          mpool.c:42   UCX  WARN  object 0xbf02480 was not returned to mpool ucp_requests
[1661864767.866450] [nc20650:784201:0]          mpool.c:42   UCX  WARN  object 0xbf02640 was not returned to mpool ucp_requests
[1661864767.868202] [nc20650:783982:0]          mpool.c:42   UCX  WARN  object 0xc00c000 was not returned to mpool ucp_requests
[1661864767.868224] [nc20650:783982:0]          mpool.c:42   UCX  WARN  object 0xc00c1c0 was not returned to mpool ucp_requests
[1661864767.868229] [nc20650:783982:0]          mpool.c:42   UCX  WARN  object 0xc00c380 was not returned to mpool ucp_requests
[1661864767.868232] [nc20650:783982:0]          mpool.c:42   UCX  WARN  object 0xc00c540 was not returned to mpool ucp_requests
[1661864767.868236] [nc20650:783982:0]          mpool.c:42   UCX  WARN  object 0xc00c700 was not returned to mpool ucp_requests
[1661864767.868240] [nc20650:783982:0]          mpool.c:42   UCX  WARN  object 0xc00c8c0 was not returned to mpool ucp_requests
[1661864767.868245] [nc20650:783982:0]          mpool.c:42   UCX  WARN  object 0xc00ca80 was not returned to mpool ucp_requests
[1661864767.868248] [nc20650:783982:0]          mpool.c:42   UCX  WARN  object 0xc00cc40 was not returned to mpool ucp_requests
[1661864767.868251] [nc20650:783982:0]          mpool.c:42   UCX  WARN  object 0xc00ce00 was not returned to mpool ucp_requests
[1661864767.868255] [nc20650:783982:0]          mpool.c:42   UCX  WARN  object 0xc00cfc0 was not returned to mpool ucp_requests
[1661864767.868258] [nc20650:783982:0]          mpool.c:42   UCX  WARN  object 0xc00d180 was not returned to mpool ucp_requests
[1661864767.868262] [nc20650:783982:0]          mpool.c:42   UCX  WARN  object 0xc00d340 was not returned to mpool ucp_requests
[1661864767.866538] [nc20650:783940:0]          mpool.c:42   UCX  WARN  object 0xb460e40 was not returned to mpool ucp_requests
[1661864767.866551] [nc20650:783940:0]          mpool.c:42   UCX  WARN  object 0xb461000 was not returned to mpool ucp_requests
[1661864767.866554] [nc20650:783940:0]          mpool.c:42   UCX  WARN  object 0xb4611c0 was not returned to mpool ucp_requests
[1661864767.866557] [nc20650:783940:0]          mpool.c:42   UCX  WARN  object 0xb461380 was not returned to mpool ucp_requests
[1661864767.866559] [nc20650:783940:0]          mpool.c:42   UCX  WARN  object 0xb461540 was not returned to mpool ucp_requests
[1661864767.866562] [nc20650:783940:0]          mpool.c:42   UCX  WARN  object 0xb461700 was not returned to mpool ucp_requests
[1661864767.866564] [nc20650:783940:0]          mpool.c:42   UCX  WARN  object 0xb4618c0 was not returned to mpool ucp_requests
[1661864767.866567] [nc20650:783940:0]          mpool.c:42   UCX  WARN  object 0xb461a80 was not returned to mpool ucp_requests
[1661864767.866569] [nc20650:783940:0]          mpool.c:42   UCX  WARN  object 0xb461c40 was not returned to mpool ucp_requests
[1661864767.866571] [nc20650:783940:0]          mpool.c:42   UCX  WARN  object 0xb461e00 was not returned to mpool ucp_requests
[1661864767.866574] [nc20650:783940:0]          mpool.c:42   UCX  WARN  object 0xb461fc0 was not returned to mpool ucp_requests
[1661864767.866576] [nc20650:783940:0]          mpool.c:42   UCX  WARN  object 0xb462180 was not returned to mpool ucp_requests
[1661864767.870464] [nc20650:783951:0]          mpool.c:42   UCX  WARN  object 0xbc92000 was not returned to mpool ucp_requests
[1661864767.870483] [nc20650:783951:0]          mpool.c:42   UCX  WARN  object 0xbc921c0 was not returned to mpool ucp_requests
[1661864767.870488] [nc20650:783951:0]          mpool.c:42   UCX  WARN  object 0xbc92380 was not returned to mpool ucp_requests
[1661864767.870491] [nc20650:783951:0]          mpool.c:42   UCX  WARN  object 0xbc92540 was not returned to mpool ucp_requests
[1661864767.870495] [nc20650:783951:0]          mpool.c:42   UCX  WARN  object 0xbc92700 was not returned to mpool ucp_requests
[1661864767.870499] [nc20650:783951:0]          mpool.c:42   UCX  WARN  object 0xbc928c0 was not returned to mpool ucp_requests
[1661864767.870503] [nc20650:783951:0]          mpool.c:42   UCX  WARN  object 0xbc92a80 was not returned to mpool ucp_requests
[1661864767.870506] [nc20650:783951:0]          mpool.c:42   UCX  WARN  object 0xbc92c40 was not returned to mpool ucp_requests
[1661864767.870510] [nc20650:783951:0]          mpool.c:42   UCX  WARN  object 0xbc92e00 was not returned to mpool ucp_requests
[1661864767.870513] [nc20650:783951:0]          mpool.c:42   UCX  WARN  object 0xbc92fc0 was not returned to mpool ucp_requests
[1661864767.870517] [nc20650:783951:0]          mpool.c:42   UCX  WARN  object 0xbc93180 was not returned to mpool ucp_requests
[1661864767.869703] [nc20650:783956:0]          mpool.c:42   UCX  WARN  object 0xc082100 was not returned to mpool ucp_requests
[1661864767.869724] [nc20650:783956:0]          mpool.c:42   UCX  WARN  object 0xc0822c0 was not returned to mpool ucp_requests
[1661864767.869727] [nc20650:783956:0]          mpool.c:42   UCX  WARN  object 0xc082480 was not returned to mpool ucp_requests
[1661864767.869730] [nc20650:783956:0]          mpool.c:42   UCX  WARN  object 0xc082640 was not returned to mpool ucp_requests
[1661864767.869732] [nc20650:783956:0]          mpool.c:42   UCX  WARN  object 0xc082800 was not returned to mpool ucp_requests
[1661864767.869734] [nc20650:783956:0]          mpool.c:42   UCX  WARN  object 0xc0829c0 was not returned to mpool ucp_requests
[1661864767.869736] [nc20650:783956:0]          mpool.c:42   UCX  WARN  object 0xc082b80 was not returned to mpool ucp_requests
[1661864767.869738] [nc20650:783956:0]          mpool.c:42   UCX  WARN  object 0xc082d40 was not returned to mpool ucp_requests
[1661864767.869741] [nc20650:783956:0]          mpool.c:42   UCX  WARN  object 0xc082f00 was not returned to mpool ucp_requests
[1661864767.869743] [nc20650:783956:0]          mpool.c:42   UCX  WARN  object 0xc0830c0 was not returned to mpool ucp_requests
[1661864767.869745] [nc20650:783956:0]          mpool.c:42   UCX  WARN  object 0xc083280 was not returned to mpool ucp_requests
[1661864767.869747] [nc20650:783956:0]          mpool.c:42   UCX  WARN  object 0xc083440 was not returned to mpool ucp_requests
[1661864767.894079] [nc20650:784146:0]          mpool.c:42   UCX  WARN  object 0xacc6740 was not returned to mpool ucp_requests
[1661864767.894096] [nc20650:784146:0]          mpool.c:42   UCX  WARN  object 0xacc6900 was not returned to mpool ucp_requests
[1661864767.894101] [nc20650:784146:0]          mpool.c:42   UCX  WARN  object 0xacc6ac0 was not returned to mpool ucp_requests
[1661864767.894105] [nc20650:784146:0]          mpool.c:42   UCX  WARN  object 0xacc6c80 was not returned to mpool ucp_requests
[1661864767.894109] [nc20650:784146:0]          mpool.c:42   UCX  WARN  object 0xacc6e40 was not returned to mpool ucp_requests
[1661864767.894113] [nc20650:784146:0]          mpool.c:42   UCX  WARN  object 0xacc7000 was not returned to mpool ucp_requests
[1661864767.894117] [nc20650:784146:0]          mpool.c:42   UCX  WARN  object 0xacc71c0 was not returned to mpool ucp_requests
[1661864767.894122] [nc20650:784146:0]          mpool.c:42   UCX  WARN  object 0xacc7380 was not returned to mpool ucp_requests
[1661864767.894126] [nc20650:784146:0]          mpool.c:42   UCX  WARN  object 0xacc7540 was not returned to mpool ucp_requests
[1661864767.894129] [nc20650:784146:0]          mpool.c:42   UCX  WARN  object 0xacc7700 was not returned to mpool ucp_requests
[1661864767.894134] [nc20650:784146:0]          mpool.c:42   UCX  WARN  object 0xacc78c0 was not returned to mpool ucp_requests
[1661864767.910282] [nc20650:784006:0]          mpool.c:42   UCX  WARN  object 0xb3190c0 was not returned to mpool ucp_requests
[1661864767.910299] [nc20650:784006:0]          mpool.c:42   UCX  WARN  object 0xb319280 was not returned to mpool ucp_requests
[1661864767.910304] [nc20650:784006:0]          mpool.c:42   UCX  WARN  object 0xb319440 was not returned to mpool ucp_requests
[1661864767.910308] [nc20650:784006:0]          mpool.c:42   UCX  WARN  object 0xb319600 was not returned to mpool ucp_requests
[1661864767.910311] [nc20650:784006:0]          mpool.c:42   UCX  WARN  object 0xb3197c0 was not returned to mpool ucp_requests
[1661864767.910315] [nc20650:784006:0]          mpool.c:42   UCX  WARN  object 0xb319980 was not returned to mpool ucp_requests
[1661864767.910320] [nc20650:784006:0]          mpool.c:42   UCX  WARN  object 0xb319b40 was not returned to mpool ucp_requests
[1661864767.910323] [nc20650:784006:0]          mpool.c:42   UCX  WARN  object 0xb319d00 was not returned to mpool ucp_requests
[1661864767.910327] [nc20650:784006:0]          mpool.c:42   UCX  WARN  object 0xb319ec0 was not returned to mpool ucp_requests
[1661864767.910332] [nc20650:784006:0]          mpool.c:42   UCX  WARN  object 0xb31a080 was not returned to mpool ucp_requests
[1661864767.910335] [nc20650:784006:0]          mpool.c:42   UCX  WARN  object 0xb31a240 was not returned to mpool ucp_requests
[1661864767.910339] [nc20650:784006:0]          mpool.c:42   UCX  WARN  object 0xb31a400 was not returned to mpool ucp_requests
[1661864767.910342] [nc20650:784006:0]          mpool.c:42   UCX  WARN  object 0xb31a5c0 was not returned to mpool ucp_requests
[1661864767.913070] [nc20650:783980:0]          mpool.c:42   UCX  WARN  object 0xb4160c0 was not returned to mpool ucp_requests
[1661864767.913090] [nc20650:783980:0]          mpool.c:42   UCX  WARN  object 0xb416280 was not returned to mpool ucp_requests
[1661864767.913095] [nc20650:783980:0]          mpool.c:42   UCX  WARN  object 0xb416440 was not returned to mpool ucp_requests
[1661864767.913098] [nc20650:783980:0]          mpool.c:42   UCX  WARN  object 0xb416600 was not returned to mpool ucp_requests
[1661864767.913100] [nc20650:783980:0]          mpool.c:42   UCX  WARN  object 0xb4167c0 was not returned to mpool ucp_requests
[1661864767.913104] [nc20650:783980:0]          mpool.c:42   UCX  WARN  object 0xb416980 was not returned to mpool ucp_requests
[1661864767.913107] [nc20650:783980:0]          mpool.c:42   UCX  WARN  object 0xb416b40 was not returned to mpool ucp_requests
[1661864767.913111] [nc20650:783980:0]          mpool.c:42   UCX  WARN  object 0xb416d00 was not returned to mpool ucp_requests
[1661864767.913114] [nc20650:783980:0]          mpool.c:42   UCX  WARN  object 0xb416ec0 was not returned to mpool ucp_requests
[1661864767.913118] [nc20650:783980:0]          mpool.c:42   UCX  WARN  object 0xb417080 was not returned to mpool ucp_requests
[1661864767.913121] [nc20650:783980:0]          mpool.c:42   UCX  WARN  object 0xb417240 was not returned to mpool ucp_requests
[1661864767.913125] [nc20650:783980:0]          mpool.c:42   UCX  WARN  object 0xb417400 was not returned to mpool ucp_requests
[1661864767.919015] [nc20650:784078:0]          mpool.c:42   UCX  WARN  object 0xbe5f740 was not returned to mpool ucp_requests
[1661864767.919033] [nc20650:784078:0]          mpool.c:42   UCX  WARN  object 0xbe5f900 was not returned to mpool ucp_requests
[1661864767.919038] [nc20650:784078:0]          mpool.c:42   UCX  WARN  object 0xbe5fac0 was not returned to mpool ucp_requests
[1661864767.919040] [nc20650:784078:0]          mpool.c:42   UCX  WARN  object 0xbe5fc80 was not returned to mpool ucp_requests
[1661864767.919043] [nc20650:784078:0]          mpool.c:42   UCX  WARN  object 0xbe5fe40 was not returned to mpool ucp_requests
[1661864767.919047] [nc20650:784078:0]          mpool.c:42   UCX  WARN  object 0xbe60000 was not returned to mpool ucp_requests
[1661864767.919051] [nc20650:784078:0]          mpool.c:42   UCX  WARN  object 0xbe601c0 was not returned to mpool ucp_requests
[1661864767.919054] [nc20650:784078:0]          mpool.c:42   UCX  WARN  object 0xbe60380 was not returned to mpool ucp_requests
[1661864767.919058] [nc20650:784078:0]          mpool.c:42   UCX  WARN  object 0xbe60540 was not returned to mpool ucp_requests
[1661864767.919062] [nc20650:784078:0]          mpool.c:42   UCX  WARN  object 0xbe60700 was not returned to mpool ucp_requests
[1661864767.919066] [nc20650:784078:0]          mpool.c:42   UCX  WARN  object 0xbe608c0 was not returned to mpool ucp_requests
[1661864767.933702] [nc20650:784024:0]          mpool.c:42   UCX  WARN  object 0xa888240 was not returned to mpool ucp_requests
[1661864767.933717] [nc20650:784024:0]          mpool.c:42   UCX  WARN  object 0xa888400 was not returned to mpool ucp_requests
[1661864767.933722] [nc20650:784024:0]          mpool.c:42   UCX  WARN  object 0xa8885c0 was not returned to mpool ucp_requests
[1661864767.933726] [nc20650:784024:0]          mpool.c:42   UCX  WARN  object 0xa888780 was not returned to mpool ucp_requests
[1661864767.933729] [nc20650:784024:0]          mpool.c:42   UCX  WARN  object 0xa888940 was not returned to mpool ucp_requests
[1661864767.933733] [nc20650:784024:0]          mpool.c:42   UCX  WARN  object 0xa888b00 was not returned to mpool ucp_requests
[1661864767.933738] [nc20650:784024:0]          mpool.c:42   UCX  WARN  object 0xa888cc0 was not returned to mpool ucp_requests
[1661864767.933742] [nc20650:784024:0]          mpool.c:42   UCX  WARN  object 0xa888e80 was not returned to mpool ucp_requests
[1661864767.933747] [nc20650:784024:0]          mpool.c:42   UCX  WARN  object 0xa889040 was not returned to mpool ucp_requests
[1661864767.933751] [nc20650:784024:0]          mpool.c:42   UCX  WARN  object 0xa889200 was not returned to mpool ucp_requests
[1661864767.933755] [nc20650:784024:0]          mpool.c:42   UCX  WARN  object 0xa8893c0 was not returned to mpool ucp_requests
[1661864767.940362] [nc20650:784071:0]          mpool.c:42   UCX  WARN  object 0xbc774c0 was not returned to mpool ucp_requests
[1661864767.940384] [nc20650:784071:0]          mpool.c:42   UCX  WARN  object 0xbc77680 was not returned to mpool ucp_requests
[1661864767.940390] [nc20650:784071:0]          mpool.c:42   UCX  WARN  object 0xbc77840 was not returned to mpool ucp_requests
[1661864767.940394] [nc20650:784071:0]          mpool.c:42   UCX  WARN  object 0xbc77a00 was not returned to mpool ucp_requests
[1661864767.940398] [nc20650:784071:0]          mpool.c:42   UCX  WARN  object 0xbc77bc0 was not returned to mpool ucp_requests
[1661864767.940402] [nc20650:784071:0]          mpool.c:42   UCX  WARN  object 0xbc77d80 was not returned to mpool ucp_requests
[1661864767.940406] [nc20650:784071:0]          mpool.c:42   UCX  WARN  object 0xbc77f40 was not returned to mpool ucp_requests
[1661864767.940410] [nc20650:784071:0]          mpool.c:42   UCX  WARN  object 0xbc78100 was not returned to mpool ucp_requests
[1661864767.940414] [nc20650:784071:0]          mpool.c:42   UCX  WARN  object 0xbc782c0 was not returned to mpool ucp_requests
[1661864767.940418] [nc20650:784071:0]          mpool.c:42   UCX  WARN  object 0xbc78480 was not returned to mpool ucp_requests
[1661864767.940422] [nc20650:784071:0]          mpool.c:42   UCX  WARN  object 0xbc78640 was not returned to mpool ucp_requests
[1661864767.941469] [nc20650:784213:0]          mpool.c:42   UCX  WARN  object 0xc31d2c0 was not returned to mpool ucp_requests
[1661864767.941485] [nc20650:784213:0]          mpool.c:42   UCX  WARN  object 0xc31d480 was not returned to mpool ucp_requests
[1661864767.941490] [nc20650:784213:0]          mpool.c:42   UCX  WARN  object 0xc31d640 was not returned to mpool ucp_requests
[1661864767.941493] [nc20650:784213:0]          mpool.c:42   UCX  WARN  object 0xc31d800 was not returned to mpool ucp_requests
[1661864767.941496] [nc20650:784213:0]          mpool.c:42   UCX  WARN  object 0xc31d9c0 was not returned to mpool ucp_requests
[1661864767.941499] [nc20650:784213:0]          mpool.c:42   UCX  WARN  object 0xc31db80 was not returned to mpool ucp_requests
[1661864767.941502] [nc20650:784213:0]          mpool.c:42   UCX  WARN  object 0xc31dd40 was not returned to mpool ucp_requests
[1661864767.941505] [nc20650:784213:0]          mpool.c:42   UCX  WARN  object 0xc31df00 was not returned to mpool ucp_requests
[1661864767.941508] [nc20650:784213:0]          mpool.c:42   UCX  WARN  object 0xc31e0c0 was not returned to mpool ucp_requests
[1661864767.941511] [nc20650:784213:0]          mpool.c:42   UCX  WARN  object 0xc31e280 was not returned to mpool ucp_requests
[1661864767.941514] [nc20650:784213:0]          mpool.c:42   UCX  WARN  object 0xc31e440 was not returned to mpool ucp_requests
[1661864767.939206] [nc20650:783948:0]          mpool.c:42   UCX  WARN  object 0xbbfde40 was not returned to mpool ucp_requests
[1661864767.939226] [nc20650:783948:0]          mpool.c:42   UCX  WARN  object 0xbbfe000 was not returned to mpool ucp_requests
[1661864767.939231] [nc20650:783948:0]          mpool.c:42   UCX  WARN  object 0xbbfe1c0 was not returned to mpool ucp_requests
[1661864767.939234] [nc20650:783948:0]          mpool.c:42   UCX  WARN  object 0xbbfe380 was not returned to mpool ucp_requests
[1661864767.939237] [nc20650:783948:0]          mpool.c:42   UCX  WARN  object 0xbbfe540 was not returned to mpool ucp_requests
[1661864767.939241] [nc20650:783948:0]          mpool.c:42   UCX  WARN  object 0xbbfe700 was not returned to mpool ucp_requests
[1661864767.939244] [nc20650:783948:0]          mpool.c:42   UCX  WARN  object 0xbbfe8c0 was not returned to mpool ucp_requests
[1661864767.939247] [nc20650:783948:0]          mpool.c:42   UCX  WARN  object 0xbbfea80 was not returned to mpool ucp_requests
[1661864767.939249] [nc20650:783948:0]          mpool.c:42   UCX  WARN  object 0xbbfec40 was not returned to mpool ucp_requests
[1661864767.939252] [nc20650:783948:0]          mpool.c:42   UCX  WARN  object 0xbbfee00 was not returned to mpool ucp_requests
[1661864767.939255] [nc20650:783948:0]          mpool.c:42   UCX  WARN  object 0xbbfefc0 was not returned to mpool ucp_requests
[1661864767.939258] [nc20650:783948:0]          mpool.c:42   UCX  WARN  object 0xbbff180 was not returned to mpool ucp_requests
[1661864767.939096] [nc20650:784005:0]          mpool.c:42   UCX  WARN  object 0xbb9af40 was not returned to mpool ucp_requests
[1661864767.939119] [nc20650:784005:0]          mpool.c:42   UCX  WARN  object 0xbb9b100 was not returned to mpool ucp_requests
[1661864767.939125] [nc20650:784005:0]          mpool.c:42   UCX  WARN  object 0xbb9b2c0 was not returned to mpool ucp_requests
[1661864767.939128] [nc20650:784005:0]          mpool.c:42   UCX  WARN  object 0xbb9b480 was not returned to mpool ucp_requests
[1661864767.939131] [nc20650:784005:0]          mpool.c:42   UCX  WARN  object 0xbb9b640 was not returned to mpool ucp_requests
[1661864767.939135] [nc20650:784005:0]          mpool.c:42   UCX  WARN  object 0xbb9b800 was not returned to mpool ucp_requests
[1661864767.939139] [nc20650:784005:0]          mpool.c:42   UCX  WARN  object 0xbb9b9c0 was not returned to mpool ucp_requests
[1661864767.939143] [nc20650:784005:0]          mpool.c:42   UCX  WARN  object 0xbb9bb80 was not returned to mpool ucp_requests
[1661864767.939146] [nc20650:784005:0]          mpool.c:42   UCX  WARN  object 0xbb9bd40 was not returned to mpool ucp_requests
[1661864767.939149] [nc20650:784005:0]          mpool.c:42   UCX  WARN  object 0xbb9bf00 was not returned to mpool ucp_requests
[1661864767.939153] [nc20650:784005:0]          mpool.c:42   UCX  WARN  object 0xbb9c0c0 was not returned to mpool ucp_requests
[1661864767.939156] [nc20650:784005:0]          mpool.c:42   UCX  WARN  object 0xbb9c280 was not returned to mpool ucp_requests
[1661864767.939159] [nc20650:784005:0]          mpool.c:42   UCX  WARN  object 0xbb9c440 was not returned to mpool ucp_requests
[1661864767.938891] [nc20650:784025:0]          mpool.c:42   UCX  WARN  object 0xb042040 was not returned to mpool ucp_requests
[1661864767.938912] [nc20650:784025:0]          mpool.c:42   UCX  WARN  object 0xb042200 was not returned to mpool ucp_requests
[1661864767.938917] [nc20650:784025:0]          mpool.c:42   UCX  WARN  object 0xb0423c0 was not returned to mpool ucp_requests
[1661864767.938922] [nc20650:784025:0]          mpool.c:42   UCX  WARN  object 0xb042580 was not returned to mpool ucp_requests
[1661864767.938925] [nc20650:784025:0]          mpool.c:42   UCX  WARN  object 0xb042740 was not returned to mpool ucp_requests
[...]
  39:       525.49      0.000008      0.559868
  40:       525.50      0.000011      0.699474
  41:       548.80      0.000533      0.704448
  42:       548.84      0.000724      0.749374
  43:       548.91      0.000405      0.748001
  44:       552.61      0.000077      0.092370
  45:       552.64      0.000024      0.084191
  46:       552.64      0.000017      0.722283
  47:       559.12      0.000351      0.006667
  48:       560.81      0.000025      0.407780
  49:       560.82      0.000064      0.087035
  50:       560.84      0.000073      0.575351
  51:       578.11      0.000100      0.403826
  52:       578.12      0.000015      0.443889
  53:       578.30      0.000024      0.287076
  54:       657.05      0.000023      0.698016
  55:       657.22      0.000013      0.550445
  56:       658.77      0.000057      0.043032
  57:       658.80      0.000008      0.084128
  58:       658.88      0.000006      0.471017
  59:       698.83      0.063475      0.749988
  60:       698.86      0.063911      0.749919
  61:       698.87      0.063069      0.749721
  62:       699.24      0.091032      0.749945
  63:       699.29      0.089709      0.749995
  64:       704.70      0.000018      0.129020
  65:       704.71      0.000006      0.258823
  66:       704.71      0.000020      0.189086
  67:       719.67      0.000083      0.658948
  68:       719.67      0.000136      0.467800
  69:       719.69      0.000247      0.704653
  70:       722.97      0.000119      0.745194
  71:       723.03      0.000006      0.735362
  72:       723.04      0.000044      0.737174
  73:       723.07      0.000018      0.588424
  74:       723.08      0.000031      0.657818
  75:       736.63      0.000321      0.745635
  76:       736.72      0.000049      0.599769
  77:       736.74      0.000032      0.612064
  78:       736.98      0.000158      0.724308
  79:       740.02      0.006906      0.749827
  80:       740.02      0.007856      0.749893
  81:       740.16      0.003325      0.749999
  82:       742.32      0.000374      0.040072
  83:       746.87      0.000024      0.366578
  84:       746.89      0.000050      0.692470
  85:       746.90      0.000023      0.610879
  86:       747.23      0.000825      0.746484
  87:       771.89     14.125525      0.749999
  88:       772.01     14.076572      0.749999
  89:       772.19     14.299227      0.749999
  90:       772.39     14.287487      0.750000
  91:       772.77     14.336836      0.750000
  92:       782.94      0.042946      0.749677
  93:       782.95      0.046380      0.749933
  94:       782.96      0.033805      0.748996
  95:       818.83      0.000393      0.744282
  96:       818.92      0.001037      0.744782
  97:       818.94      0.003814      0.742426
  98:       940.63      0.000150      0.627459
  99:       962.76      0.000231      0.661040
 100:       962.82      0.000349      0.742663
 101:       963.05      0.000211      0.748914
 102:       964.35      0.000137      0.721958
 103:       965.52      0.000409      0.749998
 104:       965.86      0.000279      0.747623
 105:       965.88      0.000130      0.742155
 106:      1083.12      0.014535      0.748827
 107:      1083.48      0.014884      0.750000
 108:      1083.99      0.019065      0.749699
 109:      1084.51      0.013779      0.045413
 110:      1097.44     13.526234      0.749997
 111:      1097.60     13.504006      0.750000
 112:      1097.66     13.469818      0.749999
 113:      1098.61     13.238790      0.749998
 114:      1098.74     13.220388      0.749993
 115:      1185.55      0.000600      0.736628
 116:      1185.56      0.000459      0.744603
 117:      1185.68      0.001630      0.743825
 118:      1186.59      0.000249      0.741868
 119:      1186.64      0.000795      0.724304
 120:      1186.80      0.000140      0.744208
 121:      1204.50      0.000060      0.260929
 122:      1204.50      0.000015      0.643612
 123:      1204.78      0.000094      0.521791
 124:      1205.18      0.000151      0.638080
 125:      1206.19      0.001372      0.749536
 126:      1240.69     20.598995      0.749999
 127:      1240.77     20.616499      0.749999
 128:      1242.99     19.977369      0.750000
 129:      1243.31     20.172730      0.750000
 130:      1243.44     19.948461      0.750000
 131:      1266.42      0.008769      0.748664
 132:      1266.57      0.007408      0.749579
 133:      1266.65      0.012335      0.748868
 134:      1297.31      0.015648      0.749896
 135:      1297.73      0.010468      0.744012
 136:      1297.83      0.001700      0.749424
 137:      1297.95      0.003208      0.735789
 138:      1298.03      0.000201      0.486719
 139:      1298.08      0.007228      0.740315
 140:      1298.62      0.004414      0.005919
 141:      1300.11      0.000202      0.669756
 142:      1323.17      0.000164      0.733153
 143:      1323.36      0.000581      0.655779
 144:      1323.43      0.001994      0.749454
 145:      1328.54      0.001378      0.742440
 146:      1328.99      0.000727      0.743027
 147:      1329.69      0.000340      0.746853
 148:      1329.73      0.000081      0.702359
 149:      1329.81      0.000034      0.324198
 150:      1420.46      1.008102      0.749999
 151:      1420.52      1.040795      0.749993
 152:      1420.68      1.024657      0.749992
 153:      1421.09      1.119638      0.749990
 154:      1421.16      1.066005      0.749946
 155:      1421.17      0.105610      0.749774
 156:      1421.40      0.000158      0.607708
 157:      1421.41      0.000155      0.703177
 158:      1421.42      0.000133      0.614432
 159:      1433.29      0.000033      0.737400
 160:      1433.30      0.000104      0.227984
 161:      1433.31      0.000009      0.652549
 162:      1475.87    378.715279      0.000000
 163:      1488.49      0.000443      0.749595
 164:      1488.56      0.000177      0.400977
 165:      1488.87      0.000202      0.744158
 166:      1490.09      0.001455      0.007365
 167:      1518.78      0.000015      0.613672
 168:      1518.79      0.000003      0.659503
 169:      1518.80      0.000018      0.456009
 170:      1548.21      0.000524      0.623750
 171:      1548.51      0.002801      0.739576
 172:      1548.84      0.000191      0.748206
 173:      1548.90      0.000166      0.686434
 174:      1548.91      0.000014      0.710627
 175:      1558.94     53.263220      0.749999
 176:      1558.98     53.298344      0.750000
 177:      1559.06     53.281584      0.750000
 178:      1559.45     53.315978      0.750000
 179:      1559.45     53.311911      0.750000

The first frequency considered to be a vibration is 6
The total number of vibrations considered is 174


--------------------------
THERMOCHEMISTRY AT 298.15K
--------------------------

Temperature         ... 298.15 K
Pressure            ... 1.00 atm
Total Mass          ... 720.66 AMU

Throughout the following assumptions are being made:
  (1) The electronic state is orbitally nondegenerate
  (2) There are no thermally accessible electronically excited states
  (3) Hindered rotations indicated by low frequency modes are not
      treated as such but are treated as vibrations and this may
      cause some error
  (4) All equations used are the standard statistical mechanics
      equations for an ideal gas
  (5) All vibrations are strictly harmonic

freq.     257.02  E(vib)   ...       0.30 
freq.     257.06  E(vib)   ...       0.30 
freq.     257.08  E(vib)   ...       0.30 
freq.     257.51  E(vib)   ...       0.30 
freq.     257.53  E(vib)   ...       0.30 
freq.     333.11  E(vib)   ...       0.24 
freq.     333.16  E(vib)   ...       0.24 
freq.     333.17  E(vib)   ...       0.24 
freq.     343.87  E(vib)   ...       0.23 
freq.     345.62  E(vib)   ...       0.23 
freq.     345.70  E(vib)   ...       0.23 
freq.     345.74  E(vib)   ...       0.23 
freq.     395.30  E(vib)   ...       0.20 
freq.     395.32  E(vib)   ...       0.20 
freq.     395.34  E(vib)   ...       0.20 
freq.     396.75  E(vib)   ...       0.20 
freq.     396.82  E(vib)   ...       0.20 
freq.     421.86  E(vib)   ...       0.18 
freq.     421.92  E(vib)   ...       0.18 
freq.     421.93  E(vib)   ...       0.18 
freq.     421.94  E(vib)   ...       0.18 
freq.     421.98  E(vib)   ...       0.18 
freq.     474.49  E(vib)   ...       0.15 
freq.     474.82  E(vib)   ...       0.15 
freq.     474.82  E(vib)   ...       0.15 
freq.     474.85  E(vib)   ...       0.15 
freq.     488.80  E(vib)   ...       0.15 
freq.     519.95  E(vib)   ...       0.13 
freq.     520.00  E(vib)   ...       0.13 
freq.     520.02  E(vib)   ...       0.13 
freq.     523.39  E(vib)   ...       0.13 
freq.     523.42  E(vib)   ...       0.13 
freq.     525.48  E(vib)   ...       0.13 
freq.     525.49  E(vib)   ...       0.13 
freq.     525.50  E(vib)   ...       0.13 
freq.     548.80  E(vib)   ...       0.12 
freq.     548.84  E(vib)   ...       0.12 
freq.     548.91  E(vib)   ...       0.12 
freq.     552.61  E(vib)   ...       0.12 
freq.     552.64  E(vib)   ...       0.12 
freq.     552.64  E(vib)   ...       0.12 
freq.     559.12  E(vib)   ...       0.12 
freq.     560.81  E(vib)   ...       0.11 
freq.     560.82  E(vib)   ...       0.11 
freq.     560.84  E(vib)   ...       0.11 
freq.     578.11  E(vib)   ...       0.11 
freq.     578.12  E(vib)   ...       0.11 
freq.     578.30  E(vib)   ...       0.11 
freq.     657.05  E(vib)   ...       0.08 
freq.     657.22  E(vib)   ...       0.08 
freq.     658.77  E(vib)   ...       0.08 
freq.     658.80  E(vib)   ...       0.08 
freq.     658.88  E(vib)   ...       0.08 
freq.     698.83  E(vib)   ...       0.07 
freq.     698.86  E(vib)   ...       0.07 
freq.     698.87  E(vib)   ...       0.07 
freq.     699.24  E(vib)   ...       0.07 
freq.     699.29  E(vib)   ...       0.07 
freq.     704.70  E(vib)   ...       0.07 
freq.     704.71  E(vib)   ...       0.07 
freq.     704.71  E(vib)   ...       0.07 
freq.     719.67  E(vib)   ...       0.07 
freq.     719.67  E(vib)   ...       0.07 
freq.     719.69  E(vib)   ...       0.07 
freq.     722.97  E(vib)   ...       0.07 
freq.     723.03  E(vib)   ...       0.07 
freq.     723.04  E(vib)   ...       0.07 
freq.     723.07  E(vib)   ...       0.07 
freq.     723.08  E(vib)   ...       0.07 
freq.     736.63  E(vib)   ...       0.06 
freq.     736.72  E(vib)   ...       0.06 
freq.     736.74  E(vib)   ...       0.06 
freq.     736.98  E(vib)   ...       0.06 
freq.     740.02  E(vib)   ...       0.06 
freq.     740.02  E(vib)   ...       0.06 
freq.     740.16  E(vib)   ...       0.06 
freq.     742.32  E(vib)   ...       0.06 
freq.     746.87  E(vib)   ...       0.06 
freq.     746.89  E(vib)   ...       0.06 
freq.     746.90  E(vib)   ...       0.06 
freq.     747.23  E(vib)   ...       0.06 
freq.     771.89  E(vib)   ...       0.05 
freq.     772.01  E(vib)   ...       0.05 
freq.     772.19  E(vib)   ...       0.05 
freq.     772.39  E(vib)   ...       0.05 
freq.     772.77  E(vib)   ...       0.05 
freq.     782.94  E(vib)   ...       0.05 
freq.     782.95  E(vib)   ...       0.05 
freq.     782.96  E(vib)   ...       0.05 
freq.     818.83  E(vib)   ...       0.05 
freq.     818.92  E(vib)   ...       0.05 
freq.     818.94  E(vib)   ...       0.05 
freq.     940.63  E(vib)   ...       0.03 
freq.     962.76  E(vib)   ...       0.03 
freq.     962.82  E(vib)   ...       0.03 
freq.     963.05  E(vib)   ...       0.03 
freq.     964.35  E(vib)   ...       0.03 
freq.     965.52  E(vib)   ...       0.03 
freq.     965.86  E(vib)   ...       0.03 
freq.     965.88  E(vib)   ...       0.03 
freq.    1083.12  E(vib)   ...       0.02 
freq.    1083.48  E(vib)   ...       0.02 
freq.    1083.99  E(vib)   ...       0.02 
freq.    1084.51  E(vib)   ...       0.02 
freq.    1097.44  E(vib)   ...       0.02 
freq.    1097.60  E(vib)   ...       0.02 
freq.    1097.66  E(vib)   ...       0.02 
freq.    1098.61  E(vib)   ...       0.02 
freq.    1098.74  E(vib)   ...       0.02 
freq.    1185.55  E(vib)   ...       0.01 
freq.    1185.56  E(vib)   ...       0.01 
freq.    1185.68  E(vib)   ...       0.01 
freq.    1186.59  E(vib)   ...       0.01 
freq.    1186.64  E(vib)   ...       0.01 
freq.    1186.80  E(vib)   ...       0.01 
freq.    1204.50  E(vib)   ...       0.01 
freq.    1204.50  E(vib)   ...       0.01 
freq.    1204.78  E(vib)   ...       0.01 
freq.    1205.18  E(vib)   ...       0.01 
freq.    1206.19  E(vib)   ...       0.01 
freq.    1240.69  E(vib)   ...       0.01 
freq.    1240.77  E(vib)   ...       0.01 
freq.    1242.99  E(vib)   ...       0.01 
freq.    1243.31  E(vib)   ...       0.01 
freq.    1243.44  E(vib)   ...       0.01 
freq.    1266.42  E(vib)   ...       0.01 
freq.    1266.57  E(vib)   ...       0.01 
freq.    1266.65  E(vib)   ...       0.01 
freq.    1297.31  E(vib)   ...       0.01 
freq.    1297.73  E(vib)   ...       0.01 
freq.    1297.83  E(vib)   ...       0.01 
freq.    1297.95  E(vib)   ...       0.01 
freq.    1298.03  E(vib)   ...       0.01 
freq.    1298.08  E(vib)   ...       0.01 
freq.    1298.62  E(vib)   ...       0.01 
freq.    1300.11  E(vib)   ...       0.01 
freq.    1323.17  E(vib)   ...       0.01 
freq.    1323.36  E(vib)   ...       0.01 
freq.    1323.43  E(vib)   ...       0.01 
freq.    1328.54  E(vib)   ...       0.01 
freq.    1328.99  E(vib)   ...       0.01 
freq.    1329.69  E(vib)   ...       0.01 
freq.    1329.73  E(vib)   ...       0.01 
freq.    1329.81  E(vib)   ...       0.01 
freq.    1420.46  E(vib)   ...       0.00 
freq.    1420.52  E(vib)   ...       0.00 
freq.    1420.68  E(vib)   ...       0.00 
freq.    1421.09  E(vib)   ...       0.00 
freq.    1421.16  E(vib)   ...       0.00 
freq.    1421.17  E(vib)   ...       0.00 
freq.    1421.40  E(vib)   ...       0.00 
freq.    1421.41  E(vib)   ...       0.00 
freq.    1421.42  E(vib)   ...       0.00 
freq.    1433.29  E(vib)   ...       0.00 
freq.    1433.30  E(vib)   ...       0.00 
freq.    1433.31  E(vib)   ...       0.00 
freq.    1475.87  E(vib)   ...       0.00 
freq.    1488.49  E(vib)   ...       0.00 
freq.    1488.56  E(vib)   ...       0.00 
freq.    1488.87  E(vib)   ...       0.00 
freq.    1490.09  E(vib)   ...       0.00 
freq.    1518.78  E(vib)   ...       0.00 
freq.    1518.79  E(vib)   ...       0.00 
freq.    1518.80  E(vib)   ...       0.00 
freq.    1548.21  E(vib)   ...       0.00 
freq.    1548.51  E(vib)   ...       0.00 
freq.    1548.84  E(vib)   ...       0.00 
freq.    1548.90  E(vib)   ...       0.00 
freq.    1548.91  E(vib)   ...       0.00 
freq.    1558.94  E(vib)   ...       0.00 
freq.    1558.98  E(vib)   ...       0.00 
freq.    1559.06  E(vib)   ...       0.00 
freq.    1559.45  E(vib)   ...       0.00 
freq.    1559.45  E(vib)   ...       0.00 

------------
INNER ENERGY
------------

The inner energy is: U= E(el) + E(ZPE) + E(vib) + E(rot) + E(trans)
    E(el)   - is the total energy from the electronic structure calculation
              = E(kin-el) + E(nuc-el) + E(el-el) + E(nuc-nuc)
    E(ZPE)  - the the zero temperature vibrational energy from the frequency calculation
    E(vib)  - the the finite temperature correction to E(ZPE) due to population
              of excited vibrational states
    E(rot)  - is the rotational thermal energy
    E(trans)- is the translational thermal energy

Summary of contributions to the inner energy U:
Electronic energy                ...  -2284.28029348 Eh
Zero point energy                ...      0.36481132 Eh     228.92 kcal/mol
Thermal vibrational correction   ...      0.01890850 Eh      11.87 kcal/mol
Thermal rotational correction    ...      0.00141627 Eh       0.89 kcal/mol
Thermal translational correction ...      0.00141627 Eh       0.89 kcal/mol
-----------------------------------------------------------------------
Total thermal energy                  -2283.89374112 Eh


Summary of corrections to the electronic energy:
(perhaps to be used in another calculation)
Total thermal correction                  0.02174104 Eh      13.64 kcal/mol
Non-thermal (ZPE) correction              0.36481132 Eh     228.92 kcal/mol
-----------------------------------------------------------------------
Total correction                          0.38655236 Eh     242.56 kcal/mol


--------
ENTHALPY
--------

The enthalpy is H = U + kB*T
                kB is Boltzmann's constant
Total free energy                 ...  -2283.89374112 Eh 
Thermal Enthalpy correction       ...      0.00094421 Eh       0.59 kcal/mol
-----------------------------------------------------------------------
Total Enthalpy                    ...  -2283.89279691 Eh


Note: Rotational entropy computed according to Herzberg 
Infrared and Raman Spectra, Chapter V,1, Van Nostrand Reinhold, 1945 
Point Group:  Th, Symmetry Number:  12  
Rotational constants in cm-1:     0.002783     0.002783     0.002783 

Vibrational entropy computed according to the QRRHO of S. Grimme
Chem.Eur.J. 2012 18 9955


-------
ENTROPY
-------

The entropy contributions are T*S = T*(S(el)+S(vib)+S(rot)+S(trans))
     S(el)   - electronic entropy
     S(vib)  - vibrational entropy
     S(rot)  - rotational entropy
     S(trans)- translational entropy
The entropies will be listed as multiplied by the temperature to get
units of energy

Electronic entropy                ...      0.00000000 Eh      0.00 kcal/mol
Vibrational entropy               ...      0.02685907 Eh     16.85 kcal/mol
Rotational entropy                ...      0.01549849 Eh      9.73 kcal/mol
Translational entropy             ...      0.02166837 Eh     13.60 kcal/mol
-----------------------------------------------------------------------
Final entropy term                ...      0.06402593 Eh     40.18 kcal/mol

In case the symmetry of your molecule has not been determined correctly
or in case you have a reason to use a different symmetry number we print 
out the resulting rotational entropy values for sn=1,12 :
 --------------------------------------------------------
|  sn= 1 | S(rot)=       0.01784469 Eh     11.20 kcal/mol|
|  sn= 2 | S(rot)=       0.01719023 Eh     10.79 kcal/mol|
|  sn= 3 | S(rot)=       0.01680740 Eh     10.55 kcal/mol|
|  sn= 4 | S(rot)=       0.01653577 Eh     10.38 kcal/mol|
|  sn= 5 | S(rot)=       0.01632509 Eh     10.24 kcal/mol|
|  sn= 6 | S(rot)=       0.01615294 Eh     10.14 kcal/mol|
|  sn= 7 | S(rot)=       0.01600740 Eh     10.04 kcal/mol|
|  sn= 8 | S(rot)=       0.01588132 Eh      9.97 kcal/mol|
|  sn= 9 | S(rot)=       0.01577011 Eh      9.90 kcal/mol|
|  sn=10 | S(rot)=       0.01567063 Eh      9.83 kcal/mol|
|  sn=11 | S(rot)=       0.01558064 Eh      9.78 kcal/mol|
|  sn=12 | S(rot)=       0.01549849 Eh      9.73 kcal/mol|
 --------------------------------------------------------


-------------------
GIBBS FREE ENERGY
-------------------

The Gibbs free energy is G = H - T*S

Total enthalpy                    ...  -2283.89279691 Eh 
Total entropy correction          ...     -0.06402593 Eh    -40.18 kcal/mol
-----------------------------------------------------------------------
Final Gibbs free energy         ...  -2283.95682284 Eh

For completeness - the Gibbs free energy minus the electronic energy
G-E(el)                           ...      0.32347064 Eh    202.98 kcal/mol



Timings for individual modules:

Sum of individual times         ...    22839.226 sec (= 380.654 min)
GTO integral calculation        ...       14.603 sec (=   0.243 min)   0.1 %
SCF iterations                  ...      270.990 sec (=   4.517 min)   1.2 %
Solution of CP-SCF eqns.        ...       68.864 sec (=   1.148 min)   0.3 %
SCF Gradient evaluation         ...       51.933 sec (=   0.866 min)   0.2 %
Numerical frequency calculation ...    22432.836 sec (= 373.881 min)  98.2 %
                             ****ORCA TERMINATED NORMALLY****
TOTAL RUN TIME: 0 days 6 hours 18 minutes 3 seconds 719 msec
