
                                 *****************
                                 * O   R   C   A *
                                 *****************

                                            #,                                       
                                            ###                                      
                                            ####                                     
                                            #####                                    
                                            ######                                   
                                           ########,                                 
                                     ,,################,,,,,                         
                               ,,#################################,,                 
                          ,,##########################################,,             
                       ,#########################################, ''#####,          
                    ,#############################################,,   '####,        
                  ,##################################################,,,,####,       
                ,###########''''           ''''###############################       
              ,#####''   ,,,,##########,,,,          '''####'''          '####       
            ,##' ,,,,###########################,,,                        '##       
           ' ,,###''''                  '''############,,,                           
         ,,##''                                '''############,,,,        ,,,,,,###''
      ,#''                                            '''#######################'''  
     '                                                          ''''####''''         
             ,#######,   #######,   ,#######,      ##                                
            ,#'     '#,  ##    ##  ,#'     '#,    #''#        ,####,   ,####,        
            ##       ##  ##   ,#'  ##            #'  '#       #'       #'  '#        
            ##       ##  #######   ##           ,######,      #####,   #    #        
            '#,     ,#'  ##    ##  '#,     ,#' ,#      #,     #,   #   #,  ,#        
             '#######'   ##     ##  '#######'  #'      '#     '####' # '####'        



                #########################################################
                #                        -***-                          #
                #          Department of theory and spectroscopy        #
                #                                                       #
                #                      Frank Neese                      #
                #                                                       #
                #     Directorship, Architecture, Infrastructure        #
                #                    SHARK, DRIVERS                     #
                #        Core code/Algorithms in most modules           #
                #                                                       #
                #        Max Planck Institute fuer Kohlenforschung      #
                #                Kaiser Wilhelm Platz 1                 #
                #                 D-45470 Muelheim/Ruhr                 #
                #                      Germany                          #
                #                                                       #
                #                  All rights reserved                  #
                #                        -***-                          #
                #########################################################


                         Program Version 6.0.1  -  RELEASE   -


 With contributions from (in alphabetic order):
[Max-Planck-Institut fuer Kohlenforschung]                               
  Daniel Aravena         : Magnetic Suceptibility                        
  Michael Atanasov       : Ab Initio Ligand Field Theory (pilot matlab implementation)
  Alexander A. Auer      : GIAO ZORA, VPT2 properties, NMR spectrum      
  Ute Becker             : All parallelization in ORCA, NUMFREQ, NUMCALC 
  Giovanni Bistoni       : ED, misc. LED, open-shell LED, HFLD           
  Martin Brehm           : Molecular dynamics                            
  Dmytro Bykov           : pre 5.0 version of the SCF Hessian            
  Marcos Casanova-Páez   : Triplet and SCS-CIS(D). UHF-(DLPNO)-IP/EA/STEOM-CCSD. UHF-CVS-IP/STEOM-CCSD   
  Vijay G. Chilkuri      : MRCI spin determinant printing, contributions to CSF-ICE 
  Pauline Colinet        : FMM embedding                                 
  Dipayan Datta          : RHF DLPNO-CCSD density                        
  Achintya Kumar Dutta   : EOM-CC, STEOM-CC                              
  Nicolas Foglia         : Exact transition moments, OPA infrastructure, MCD improvements    
  Dmitry Ganyushin       : Spin-Orbit,Spin-Spin,Magnetic field MRCI      
  Miquel Garcia-Rates    : C-PCM and meta-GGA Hessian, CCSD/C-PCM, Gaussian charge scheme 
  Tiago L. C. Gouveia    : GS-ROHF, GS-ROCIS                             
  Yang Guo               : DLPNO-NEVPT2, F12-NEVPT2, CIM, IAO-localization        
  Andreas Hansen         : Spin unrestricted coupled pair/coupled cluster methods 
  Ingolf Harden          : AUTO-CI MPn and infrastructure                
  Benjamin Helmich-Paris : MC-RPA, TRAH-(SCF,CASSCF), AVAS, COSX integrals, SCF dyn. polar. 
  Lee Huntington         : MR-EOM, pCC                                   
  Robert Izsak           : Overlap fitted RIJCOSX, COSX-SCS-MP3, EOM     
  Riya Kayal             : Wick's Theorem for AUTO-CI, AUTO-CI UHF-CCSDT 
  Emily Kempfer          : AUTO-CI, RHF CISDT and CCSDT                  
  Christian Kollmar      : KDIIS, OOCD, Brueckner-CCSD(T), CCSD density, CASPT2, CASPT2-K, improved NEVPT2 
  Axel Koslowski         : Symmetry handling                             
  Simone Kossmann        : meta-GGA functionals, TD-DFT gradient, OOMP2, (MP2 Hessian; deprecated post 5.0) 
  Lucas Lang             : DCDCAS                                        
  Marvin Lechner         : AUTO-CI (C++ implementation), FIC-MRCC        
  Spencer Leger          : CASSCF response                               
  Dagmar Lenk            : GEPOL surface, SMD, ORCA-2-JSON               
  Dimitrios Liakos       : Extrapolation schemes; Compound Job, initial MDCI parallelization 
  Dimitrios Manganas     : Further ROCIS development; embedding schemes. LFT, Crystal Embedding 
  Dimitrios Pantazis     : SARC Basis sets                               
  Anastasios Papadopoulos: AUTO-CI, single reference methods and gradients 
  Taras Petrenko         : pre 6.0 DFT Hessian and TD-DFT gradient, (ASA, deprecated), ECA, 1-Electron XAS/XES, NRVS 
  Peter Pinski           : DLPNO-MP2, DLPNO-MP2 Gradient                 
  Christoph Reimann      : Effective Core Potentials                     
  Marius Retegan         : Local ZFS, SOC                                
  Christoph Riplinger    : Optimizer, TS searches, QM/MM, DLPNO-CCSD(T), (RO)-DLPNO pert. Triples 
  Michael Roemelt        : Original ROCIS implementation                 
  Masaaki Saitow         : Open-shell DLPNO-CCSD energy and density      
  Barbara Sandhoefer     : DKH picture change effects                    
  Kantharuban Sivalingam : CASSCF convergence/infrastructure, NEVPT2 and variants, FIC-MRCI 
  Bernardo de Souza      : ESD, SOC TD-DFT                               
  Georgi L. Stoychev     : AutoAux, RI-MP2 NMR, DLPNO-MP2 response, X2C  
  Van Anh Tran           : RI-MP2 g-tensors                              
  Willem Van den Heuvel  : Paramagnetic NMR                              
  Zikuan Wang            : NOTCH, Electric field optimization            
  Frank Wennmohs         : Technical directorship and infrastructure     
  Hang Xu                : AUTO-CI-Response properties                   
                                                                         
[FACCTs GmbH]                                                            
  Markus Bursch, Miquel Garcia-Rates, Christoph Riplinger, Bernardo de Souza, Georgi L. Stoychev 
                                                                 
  APM, Basis sets (HGBS, AHGBS, def-TZVP (Ac-Lr), def2-XVPD (La-Lu)), CI-OPT, improved COSX, DLPNO-Multilevel,           
  DOCKER, DRACO, updates on ESD, GOAT, IRC, LR-CPCM, MBIS, meta-GGA TD-DFT gradient, ML-optimized integration grids, 
  MM, NACMEs, nearIR, NEB, NEB-TS, NL-DFT gradient (VV10), 2- and 3-layer-ONIOM, interface openCOSMO-RS, QMMM,   
  Crystal-QMMM, SF, symmetry and pop. for TD-DFT, r2SCAN hybrids, SOLVATOR                                   
                                                                         
[Other institutions]                                                     
  V. Asgeirsson          : NEB                                           
  Christoph Bannwarth    : sTDA-DFT, sTD-DFT, PBEh-3c, B97-3c, D3        
  Sebastian Ehlert       : rSCAN, r2SCAN, r2SCAN-3c, D4, dhf basis sets  
  Marvin Friede          : D4 for Fr, Ra, Ac-Lr                          
  Lars Goerigk           : TD-DFT with DH, B97 family of functionals     
  Stefan Grimme          : VdW corrections, initial TS optimization, DFT functionals, gCP, sTDA/sTD-DF 
  Waldemar Hujo          : DFT-NL                                        
  H. Jonsson             : NEB                                           
  Holger Kruse           : gCP                                           
  Marcel Mueller         : wB97X-3c, vDZP basis set                      
  Hagen Neugebauer       : wr2SCAN                                       
  Tobias Risthaus        : range-separated hybrid DFT                    
  Lukas Wittmann         : regularized MP2, r2SCAN double-hybrids, wr2SCAN        
                                                                         
We gratefully acknowledge several colleagues who have allowed us to      
interface, adapt or use parts of their codes:                            
  Ed Valeev, F. Pavosevic, A. Kumar             : LibInt (2-el integral package), F12 methods 
  Garnet Chan, S. Sharma, J. Yang, R. Olivares  : DMRG                   
  Ulf Ekstrom                                   : XCFun DFT Library      
  Mihaly Kallay                                 : mrcc  (arbitrary order and MRCC methods)
  Frank Weinhold                                : gennbo (NPA and NBO analysis)           
  Simon Mueller                                 : openCOSMO-RS                            
  Christopher J. Cramer and Donald G. Truhlar   : smd solvation model                     
  S Lehtola, MJT Oliveira, MAL Marques          : LibXC Library                           
  Liviu Ungur et al                             : ANISO software                          


 Your calculation uses the libint2 library for the computation of 2-el integrals
 For citations please refer to: http://libint.valeyev.net

 Your ORCA version has been built with support for libXC version: 6.2.2
 For citations please refer to: https://libxc.gitlab.io

 This ORCA versions uses:
   CBLAS   interface :  Fast vector & matrix operations
   LAPACKE interface :  Fast linear algebra routines
   SCALAPACK package :  Parallel linear algebra routines
   Shared memory     :  Shared parallel matrices
   BLAS/LAPACK       :  OpenBLAS 0.3.27  USE64BITINT DYNAMIC_ARCH NO_AFFINITY Zen SINGLE_THREADED
        Core in use  :  Zen
   Copyright (c) 2011-2014, The OpenBLAS Project


NOTE: MaxCore=750 MB was set to SCF,MP2,MDCI,CIPSI,MRCI and CIS
      => If you want to overwrite this, your respective input block should be placed after the MaxCore statement


***************************************
The coordinates will be read from file: OPT_tungsten_hexacarbonyl_f.xyz
***************************************


Warning: RI is on but no J-basis has been assigned. Assigning Def2/J (nothing to worry about!)
================================================================================

cite the ECPs for W  [Def2-ECP] as follows:
Ce-Yb(ecp-28): M. Dolg, H. Stoll, H.Preuss, J. Chem. Phys., 1989, 90, 1730-1734.
Y-Cd(ecp-28), Hf-Hg(ecp-46): D. Andrae,U. Haeussermann, M. Dolg, H. Stoll, H. Preuss, Theor. Chim. Acta, 1990, 77, 123-141.
In-Sb(ecp-28), Tl-Bi(ecp-46): B. Metz, H. Stoll, M. Dolg, J. Chem. Phys., 2000, 113, 2563-2569.
Te-Xe(ecp-28), Po-Rn(ecp-46): K. A. Peterson, D. Figgen, E. Goll, H. Stoll, M. Dolg, J. Chem. Phys., 2003, 119, 11113-11123.
Rb(ecp-28), Cs(ecp-46): T. Leininger, A. Nicklass, W. Kuechle, H. Stoll, M. Dolg, A. Bergner, Chem. Phys. Lett., 1996, 255, 274-280.
Sr(ecp-28), Ba(ecp-46): M. Kaupp, P. V. Schleyer, H. Stoll and H. Preuss, J. Chem. Phys., 1991, 94, 1360-1366.
La(ecp-46): M. Dolg, H. Stoll, A. Savin, H. Preuss, Theor. Chim. Acta, 1989, 75, 173-194.
Lu(ecp-28): X. Cao, M. Dolg, J. Chem. Phys., 2001, 115, 7348-7355.

ECP parameters for W  [Def2-ECP] have been obtained from:
TURBOMOLE (7.0.2)

----- Orbital basis set information -----
Your calculation utilizes the basis: def2-SVP
   F. Weigend and R. Ahlrichs, Phys. Chem. Chem. Phys. 7, 3297 (2005).

----- AuxJ basis set information -----
Your calculation utilizes the auxiliary basis: def2/J
   F. Weigend, Phys. Chem. Chem. Phys. 8, 1057 (2006).

================================================================================
                                        WARNINGS
                       Please study these warnings very carefully!
================================================================================


================================================================================
                                       INPUT FILE
================================================================================
NAME = FRQ_tungsten_hexacarbonyl_f.inp
|  1> ! B3LYP/G def2-SVP  DefGrid3 ExtremeSCF FREQ
|  2> # DFT functional:   B3LYP/G
|  3> # Basis:            def2-SVP
|  4> %maxcore 750
|  5> %pal nprocs 22
|  6> end
|  7> %base "FRQ_tungsten_hexacarbonyl_f"
|  8> %scf
|  9>       Guess         MORead
| 10>       MOInp         "OPT_tungsten_hexacarbonyl_f.gbw"
| 11> end
| 12> *xyzfile 0 1 OPT_tungsten_hexacarbonyl_f.xyz
| 13> 
| 14>                          ****END OF INPUT****
================================================================================

                       ****************************
                       * Single Point Calculation *
                       ****************************

---------------------------------
CARTESIAN COORDINATES (ANGSTROEM)
---------------------------------
  W      0.228755    1.398632    0.034070
  C      0.839921    3.256817   -0.704638
  O     -0.716456   -1.477601    1.177604
  C      0.642408    2.037060    1.981726
  O     -0.412270    0.410603   -2.980346
  C     -0.185274    0.760304   -1.913543
  C     -1.727636    2.113989    0.215275
  C     -0.382076   -0.459606    0.772924
  O      1.174823    4.274761   -1.109014
  C      2.185153    0.683305   -0.147215
  O      0.868762    2.386922    3.048613
  O      3.256824    0.291461   -0.246550
  O     -2.799293    2.505903    0.314483

----------------------------
CARTESIAN COORDINATES (A.U.)
----------------------------
  NO LB      ZA    FRAG     MASS         X           Y           Z
   0 W    14.0000*   0   183.850    0.432285    2.643031    0.064383
   1 C     6.0000    0    12.011    1.587220    6.154492   -1.331573
   2 O     8.0000    0    15.999   -1.353906   -2.792262    2.225349
   3 C     6.0000    0    12.011    1.213975    3.849485    3.744919
   4 O     8.0000    0    15.999   -0.779078    0.775927   -5.632037
   5 C     6.0000    0    12.011   -0.350117    1.436767   -3.616072
   6 C     6.0000    0    12.011   -3.264758    3.994861    0.406811
   7 C     6.0000    0    12.011   -0.722019   -0.868530    1.460615
   8 O     8.0000    0    15.999    2.220093    8.078128   -2.095732
   9 C     6.0000    0    12.011    4.129341    1.291260   -0.278195
  10 O     8.0000    0    15.999    1.641722    4.510629    5.761043
  11 O     8.0000    0    15.999    6.154506    0.550782   -0.465911
  12 O     8.0000    0    15.999   -5.289898    4.735470    0.594286
* core charge reduced due to ECP

--------------------------------
INTERNAL COORDINATES (ANGSTROEM)
--------------------------------
 W      0   0   0     0.000000000000     0.00000000     0.00000000
 C      1   0   0     2.090948413349     0.00000000     0.00000000
 O      1   2   0     3.236326738716   179.98623463     0.00000000
 C      1   2   3     2.090947481518    89.99505842    70.70098498
 O      1   2   4     3.236328033292    90.00794146   179.98612828
 C      5   1   2     1.145376195558     0.00684598    57.47878418
 C      1   2   4     2.090941839774    90.00351957    89.99523830
 C      3   1   7     1.145377548593     0.00787210   352.96077908
 O      2   1   7     1.145377664401   179.98468190   101.96039763
 C      1   2   9     2.090944495343    89.99489236   281.95865402
 O      4   1   2     1.145376557448   179.98613589    77.63386969
 O     10   1   2     1.145376893587   179.99844468   284.21769978
 O      7   1   2     1.145377094954   179.99612527    22.55124554

---------------------------
INTERNAL COORDINATES (A.U.)
---------------------------
 W      0   0   0     0.000000000000     0.00000000     0.00000000
 C      1   0   0     3.951319861388     0.00000000     0.00000000
 O      1   2   0     6.115771216059   179.98623463     0.00000000
 C      1   2   3     3.951318100482    89.99505842    70.70098498
 O      1   2   4     6.115773662454    90.00794146   179.98612828
 C      5   1   2     2.164447329917     0.00684598    57.47878418
 C      1   2   4     3.951307439130    90.00351957    89.99523830
 C      3   1   7     2.164449886782     0.00787210   352.96077908
 O      2   1   7     2.164450105628   179.98468190   101.96039763
 C      1   2   9     3.951312457429    89.99489236   281.95865402
 O      4   1   2     2.164448013791   179.98613589    77.63386969
 O     10   1   2     2.164448649002   179.99844468   284.21769978
 O      7   1   2     2.164449029530   179.99612527    22.55124554

---------------------
BASIS SET INFORMATION
---------------------
There are 3 groups of distinct atoms

 Group   1 Type W   : 7s6p5d1f contracted to 6s3p2d1f pattern {211111/411/41/1}
 Group   2 Type C   : 7s4p1d contracted to 3s2p1d pattern {511/31/1}
 Group   3 Type O   : 7s4p1d contracted to 3s2p1d pattern {511/31/1}

Atom   0W    basis set group =>   1
Atom   1C    basis set group =>   2
Atom   2O    basis set group =>   3
Atom   3C    basis set group =>   2
Atom   4O    basis set group =>   3
Atom   5C    basis set group =>   2
Atom   6C    basis set group =>   2
Atom   7C    basis set group =>   2
Atom   8O    basis set group =>   3
Atom   9C    basis set group =>   2
Atom  10O    basis set group =>   3
Atom  11O    basis set group =>   3
Atom  12O    basis set group =>   3
---------------------------------
AUXILIARY/J BASIS SET INFORMATION
---------------------------------
There are 3 groups of distinct atoms

 Group   1 Type W   : 11s5p5d3f3g contracted to 8s5p5d2f3g pattern {41111111/11111/11111/21/111}
 Group   2 Type C   : 12s5p4d2f1g contracted to 6s4p3d1f1g pattern {711111/2111/211/2/1}
 Group   3 Type O   : 12s5p4d2f1g contracted to 6s4p3d1f1g pattern {711111/2111/211/2/1}

Atom   0W    basis set group =>   1
Atom   1C    basis set group =>   2
Atom   2O    basis set group =>   3
Atom   3C    basis set group =>   2
Atom   4O    basis set group =>   3
Atom   5C    basis set group =>   2
Atom   6C    basis set group =>   2
Atom   7C    basis set group =>   2
Atom   8O    basis set group =>   3
Atom   9C    basis set group =>   2
Atom  10O    basis set group =>   3
Atom  11O    basis set group =>   3
Atom  12O    basis set group =>   3
-------------------------
ECP PARAMETER INFORMATION
-------------------------

 Group 1, Type W  ECP Def2-ECP (replacing 60 core electrons, lmax=3)

Atom   0W    ECP group =>   1



           ************************************************************
           *        Program running with 22 parallel MPI-processes    *
           *              working on a common directory               *
           ************************************************************
------------------------------------------------------------------------------
                             ORCA STARTUP CALCULATIONS
                           -- RI-GTO INTEGRALS CHOSEN --
------------------------------------------------------------------------------
------------------------------------------------------------------------------
                   ___                                                        
                  /   \      - P O W E R E D   B Y -                         
                 /     \                                                     
                 |  |  |   _    _      __       _____    __    __             
                 |  |  |  | |  | |    /  \     |  _  \  |  |  /  |          
                  \  \/   | |  | |   /    \    | | | |  |  | /  /          
                 / \  \   | |__| |  /  /\  \   | |_| |  |  |/  /          
                |  |  |   |  __  | /  /__\  \  |    /   |      \           
                |  |  |   | |  | | |   __   |  |    \   |  |\   \          
                \     /   | |  | | |  |  |  |  | |\  \  |  | \   \       
                 \___/    |_|  |_| |__|  |__|  |_| \__\ |__|  \__/        
                                                                              
                      - O R C A' S   B I G   F R I E N D -                    
                                      &                                       
                       - I N T E G R A L  F E E D E R -                       
                                                                              
 v1 FN, 2020, v2 2021, v3 2022-2024                                           
------------------------------------------------------------------------------


----------------------
SHARK INTEGRAL PACKAGE
----------------------

Number of atoms                             ...     13
Number of basis functions                   ...    200
Number of shells                            ...     84
Maximum angular momentum                    ...      3
Integral batch strategy                     ... SHARK/LIBINT Hybrid
RI-J (if used) integral strategy            ... SPLIT-RIJ (Revised 2003 algorithm where possible)
Printlevel                                  ...      1
Contraction scheme used                     ... SEGMENTED contraction
Prescreening option                         ... SCHWARTZ
   Thresh                                   ... 3.000e-16
   Tcut                                     ... 3.000e-16
   Tpresel                                  ... 3.000e-16 
Coulomb Range Separation                    ... NOT USED
Exchange Range Separation                   ... NOT USED
Multipole approximations                    ... NOT USED
Finite Nucleus Model                        ... NOT USED
CABS basis                                  ... NOT available
Auxiliary Coulomb fitting basis             ... AVAILABLE
   # of basis functions in Aux-J            ...    677
   # of shells in Aux-J                     ...    203
   Maximum angular momentum in Aux-J        ...      4
Auxiliary J/K fitting basis                 ... NOT available
Auxiliary Correlation fitting basis         ... NOT available
Auxiliary 'external' fitting basis          ... NOT available

Checking pre-screening integrals            ... done (  0.1 sec) Dimension = 84
Check shell pair data                       ... done (  0.1 sec)
Shell pair information
Shell pair cut-off parameter TPreSel        ...   3.0e-16
Total number of shell pairs                 ...      3570
Shell pairs after pre-screening             ...      3185
Total number of primitive shell pairs       ...     13535
Primitive shell pairs kept                  ...      8300
          la=0 lb=0:    750 shell pairs
          la=1 lb=0:   1056 shell pairs
          la=1 lb=1:    371 shell pairs
          la=2 lb=0:    498 shell pairs
          la=2 lb=1:    342 shell pairs
          la=2 lb=2:     84 shell pairs
          la=3 lb=0:     42 shell pairs
          la=3 lb=1:     27 shell pairs
          la=3 lb=2:     14 shell pairs
          la=3 lb=3:      1 shell pairs

Calculating one electron integrals          ... done (  0.0 sec)
Calculating ECP integrals                   ... done (  0.2 sec)
Calculating RI/J V-Matrix + Cholesky decomp.... done (  1.2 sec)
Calculating Nuclear repulsion               ... done (  0.0 sec) ENN=    752.784186282282 Eh

Diagonalization of the overlap matrix:
Smallest eigenvalue                        ... 1.313e-03
Time for diagonalization                   ...    0.004 sec
Threshold for overlap eigenvalues          ... 1.000e-07
Number of eigenvalues below threshold      ... 0
Time for construction of square roots      ...    0.072 sec
Total time needed                          ...    0.258 sec

-------------------
DFT GRID GENERATION
-------------------

General Integration Accuracy     IntAcc      ... 4.959
Radial Grid Type                 RadialGrid  ... OptM3 with GC (2021)
Angular Grid (max. ang.)         AngularGrid ... 6 (Lebedev-590)
Angular grid pruning method      GridPruning ... 4 (adaptive)
Weight generation scheme         WeightScheme... mBecke (2022)
Basis function cutoff            BFCut       ... 3.0000e-16
Integration weight cutoff        WCut        ... 1.0000e-14
Partially contracted basis set               ... off
Rotationally invariant grid construction     ... off
Angular grids for H and He will be reduced by one unit

Total number of grid points                  ...   195698
Total number of batches                      ...     3066
Average number of points per batch           ...       63
Average number of grid points per atom       ...    15054

--------------------
COSX GRID GENERATION
--------------------

GRIDX 1
-------
General Integration Accuracy     IntAcc      ... 4.020
Radial Grid Type                 RadialGrid  ... OptM3 with GC (2021)
Angular Grid (max. ang.)         AngularGrid ... 2 (Lebedev-110)
Angular grid pruning method      GridPruning ... 4 (adaptive)
Weight generation scheme         WeightScheme... mBecke (2022)
Basis function cutoff            BFCut       ... 3.0000e-16
Integration weight cutoff        WCut        ... 1.0000e-14
Partially contracted basis set               ... on
Rotationally invariant grid construction     ... off
Angular grids for H and He will be reduced by one unit

Total number of grid points                  ...    28830
Total number of batches                      ...      231
Average number of points per batch           ...      124
Average number of grid points per atom       ...     2218
UseSFitting                                  ... on

GRIDX 2
-------
General Integration Accuracy     IntAcc      ... 4.338
Radial Grid Type                 RadialGrid  ... OptM3 with GC (2021)
Angular Grid (max. ang.)         AngularGrid ... 3 (Lebedev-194)
Angular grid pruning method      GridPruning ... 4 (adaptive)
Weight generation scheme         WeightScheme... mBecke (2022)
Basis function cutoff            BFCut       ... 3.0000e-16
Integration weight cutoff        WCut        ... 1.0000e-14
Partially contracted basis set               ... on
Rotationally invariant grid construction     ... off
Angular grids for H and He will be reduced by one unit

Total number of grid points                  ...    55671
Total number of batches                      ...      443
Average number of points per batch           ...      125
Average number of grid points per atom       ...     4282
UseSFitting                                  ... on

GRIDX 3
-------
General Integration Accuracy     IntAcc      ... 4.871
Radial Grid Type                 RadialGrid  ... OptM3 with GC (2021)
Angular Grid (max. ang.)         AngularGrid ... 4 (Lebedev-302)
Angular grid pruning method      GridPruning ... 4 (adaptive)
Weight generation scheme         WeightScheme... mBecke (2022)
Basis function cutoff            BFCut       ... 3.0000e-16
Integration weight cutoff        WCut        ... 1.0000e-14
Partially contracted basis set               ... on
Rotationally invariant grid construction     ... off
Angular grids for H and He will be reduced by one unit

Total number of grid points                  ...    97567
Total number of batches                      ...      769
Average number of points per batch           ...      126
Average number of grid points per atom       ...     7505
UseSFitting                                  ... on
Initializing property integral containers    ... done (  0.3 sec)

SHARK setup successfully completed in  13.7 seconds

Maximum memory used throughout the entire STARTUP-calculation: 40.4 MB


           ************************************************************
           *        Program running with 22 parallel MPI-processes    *
           *              working on a common directory               *
           ************************************************************
-------------------------------------------------------------------------------
                                 ORCA GUESS
                   Start orbitals & Density for SCF / CASSCF
-------------------------------------------------------------------------------

------------
SCF SETTINGS
------------
Hamiltonian:
 Density Functional     Method          .... DFT(GTOs)
 Exchange Functional    Exchange        .... B88
   X-Alpha parameter    XAlpha          ....  0.666667
   Becke's b parameter  XBeta           ....  0.004200
 Correlation Functional Correlation     .... LYP
 LDA part of GGA corr.  LDAOpt          .... VWN-3
 Gradients option       PostSCFGGA      .... off
 Hybrid DFT is turned on
   Fraction HF Exchange ScalHFX         ....  0.200000
   Scaling of DF-GGA-X  ScalDFX         ....  0.720000
   Scaling of DF-GGA-C  ScalDFC         ....  0.810000
   Scaling of DF-LDA-C  ScalLDAC        ....  1.000000
   Perturbative correction              ....  0.000000
   NL short-range parameter             ....  4.800000
 RI-approximation to the Coulomb term is turned on
   Number of AuxJ basis functions       .... 677
   RIJ-COSX (HFX calculated with COS-X)).... on


General Settings:
 Integral files         IntName         .... FRQ_tungsten_hexacarbonyl_f
 Hartree-Fock type      HFTyp           .... RHF
 Total Charge           Charge          ....    0
 Multiplicity           Mult            ....    1
 Number of Electrons    NEL             ....   98
 Basis Dimension        Dim             ....  200
 Nuclear Repulsion      ENuc            ....    752.7841862823 Eh

Convergence Acceleration:
 AO-DIIS                CNVDIIS         .... on
   Start iteration      DIISMaxIt       ....    12
   Startup error        DIISStart       ....  0.200000
   # of expansion vecs  DIISMaxEq       ....     5
   Bias factor          DIISBfac        ....   1.050
   Max. coefficient     DIISMaxC        ....  10.000
 MO-DIIS                CNVKDIIS        .... off
 Trust-Rad. Augm. Hess. CNVTRAH         .... auto
   Auto Start mean grad. ratio tolernc. ....  1.125000
   Auto Start start iteration           ....     1
   Auto Start num. interpolation iter.  ....    10
   Max. Number of Micro iterations      ....    24
   Max. Number of Macro iterations      .... Maxiter - #DIIS iter
   Number of Davidson start vectors     ....     2
   Converg. threshold    (grad. norm)   ....   1.000e-09
   Grad. Scal. Fac. for Micro threshold ....   0.100
   Minimum threshold for Micro iter.    ....   1.000e-02
   NR start threshold (gradient norm)   ....   1.000e-04
   Initial trust radius                 ....   0.400
   Minimum AH scaling param. (alpha)    ....   1.000
   Maximum AH scaling param. (alpha)    .... 1000.000
   Quad. conv. algorithm                .... NR
   White noise on init. David. guess    .... on
   Maximum white noise                  ....   0.010
   Pseudo random numbers                .... off
   Inactive MOs                         .... canonical
   Orbital update algorithm             .... Taylor
   Preconditioner                       .... Diag
   Full preconditioner red. dimension   ....   250
 SOSCF                  CNVSOSCF        .... on
   Start iteration      SOSCFMaxIt      ....   150
   Startup grad/error   SOSCFStart      ....  0.003300
   Hessian update       SOSCFHessUp     .... L-BFGS
 Level Shifting         CNVShift        .... on
   Level shift para.    LevelShift      ....    0.2500
   Turn off err/grad.   ShiftErr        ....    0.0010
 Zerner damping         CNVZerner       .... off
 Static damping         CNVDamp         .... on
   Fraction old density DampFac         ....    0.7000
   Max. Damping (<1)    DampMax         ....    0.9800
   Min. Damping (>=0)   DampMin         ....    0.0000
   Turn off err/grad.   DampErr         ....    0.1000

SCF Procedure:
 Maximum # iterations   MaxIter         ....   125
 SCF integral mode      SCFMode         .... Direct
   Integral package                     .... SHARK and LIBINT hybrid scheme
 Reset frequency        DirectResetFreq ....    20
 Integral Threshold     Thresh          ....  3.000e-16 Eh
 Primitive CutOff       TCut            ....  3.000e-16 Eh

Convergence Tolerance:
 Convergence Check Mode ConvCheckMode   .... All-Criteria
 Convergence forced     ConvForced      .... 0
 Energy Change          TolE            ....  1.000e-14 Eh
 Max Density Change     TolMaxP         ....  1.000e-14
 RMS Density Change     TolRMSP         ....  1.000e-14
 Orbital Gradient       TolG            ....  1.000e-09
 Orbital Rotation angle TolX            ....  1.000e-09
 DIIS Error             TolErr          ....  1.000e-14

---------------------
INITIAL GUESS: MOREAD
---------------------
Guess MOs are being read from file: OPT_tungsten_hexacarbonyl_f.gbw
Input Geometry matches current geometry (good)
Input basis set matches current basis set (good)
Occupation numbers will be reassigned to an Aufbau configuration
MOs were renormalized
MOs were reorthogonalized (Cholesky)
                      ------------------
                      INITIAL GUESS DONE (   1.5 sec)
                      ------------------
             **** ENERGY FILE WAS UPDATED (FRQ_tungsten_hexacarbonyl_f.en.tmp) ****
Finished Guess after   5.0 sec
Maximum memory used throughout the entire GUESS-calculation: 11.5 MB


           ************************************************************
           *        Program running with 22 parallel MPI-processes    *
           *              working on a common directory               *
           ************************************************************

-------------------------------------------------------------------------------------------
                                      ORCA LEAN-SCF
                              memory conserving SCF solver
-------------------------------------------------------------------------------------------

----------------------------------------D-I-I-S--------------------------------------------
Iteration    Energy (Eh)           Delta-E    RMSDP     MaxDP     DIISErr   Damp  Time(sec)
-------------------------------------------------------------------------------------------
               ***  Starting incremental Fock matrix formation  ***
                              *** Initializing SOSCF ***
---------------------------------------S-O-S-C-F--------------------------------------
Iteration    Energy (Eh)           Delta-E    RMSDP     MaxDP     MaxGrad    Time(sec)
--------------------------------------------------------------------------------------
    1    -746.7191975051449617     0.00e+00  1.23e-09  3.52e-08  3.79e-10     6.9
               *** Restarting incremental Fock matrix formation ***
    2    -746.7191975051458712    -9.09e-13  4.21e-11  6.32e-10  1.17e-09     8.4
    3    -746.7191975051495092    -3.64e-12  0.00e+00  0.00e+00  7.08e-10    10.2
                           ***RMSP convergence achieved***
                           ***MAXP convergence achieved***
                       ***Gradient convergence achieved***
                    ***Orbital Rotation convergence achieved***
    4    -746.7191975051495092     0.00e+00  0.00e+00  0.00e+00  7.08e-10     6.3
                          ***Energy convergence achieved***

               *****************************************************
               *                     SUCCESS                       *
               *           SCF CONVERGED AFTER   4 CYCLES          *
               *****************************************************

Recomputing exchange energy using gridx3       ... done (    1.131 sec)
Old exchange energy                            :    -17.341632568 Eh
New exchange energy                            :    -17.341635815 Eh
Exchange energy change after final integration :     -0.000003247 Eh
Total energy after final integration           :   -746.719200752 Eh
             **** ENERGY FILE WAS UPDATED (FRQ_tungsten_hexacarbonyl_f.en.tmp) ****

----------------
TOTAL SCF ENERGY
----------------

Total Energy       :       -746.71920075204503 Eh          -20319.26246 eV

Components:
Nuclear Repulsion  :        752.78418628228212 Eh           20484.29911 eV
Electronic Energy  :      -1499.50338378743163 Eh          -40803.56149 eV
One Electron Energy:      -2536.48131508391316 Eh          -69021.16555 eV
Two Electron Energy:       1036.97793129648153 Eh           28217.60407 eV

Virial components:
Potential Energy   :      -1444.05635325614639 Eh          -39294.77108 eV
Kinetic Energy     :        697.33715250410137 Eh           18975.50862 eV
Virial Ratio       :          2.07081516891882

DFT components:
N(Alpha)           :       49.000001078660 electrons
N(Beta)            :       49.000001078660 electrons
N(Total)           :       98.000002157320 electrons
E(X)               :      -69.428950213799 Eh       
E(C)               :       -4.407407646401 Eh       
E(XC)              :      -73.836357860201 Eh       

---------------
SCF CONVERGENCE
---------------

  Last Energy change         ...    0.0000e+00  Tolerance :   1.0000e-14
  Last MAX-Density change    ...    0.0000e+00  Tolerance :   1.0000e-14
  Last RMS-Density change    ...    0.0000e+00  Tolerance :   1.0000e-14
  Last DIIS Error            ...    1.0163e-07  Tolerance :   1.0000e-14
  Last Orbital Gradient      ...    7.0776e-10  Tolerance :   1.0000e-09
  Last Orbital Rotation      ...    0.0000e+00  Tolerance :   1.0000e-09


----------------
ORBITAL ENERGIES
----------------

  NO   OCC          E(Eh)            E(eV) 
   0   2.0000     -19.237766      -523.4862 
   1   2.0000     -19.237675      -523.4837 
   2   2.0000     -19.237673      -523.4837 
   3   2.0000     -19.237673      -523.4837 
   4   2.0000     -19.237624      -523.4824 
   5   2.0000     -19.237623      -523.4823 
   6   2.0000     -10.321062      -280.8504 
   7   2.0000     -10.321061      -280.8503 
   8   2.0000     -10.320896      -280.8458 
   9   2.0000     -10.320895      -280.8458 
  10   2.0000     -10.320892      -280.8458 
  11   2.0000     -10.320791      -280.8430 
  12   2.0000      -2.964159       -80.6589 
  13   2.0000      -1.614798       -43.9409 
  14   2.0000      -1.614797       -43.9409 
  15   2.0000      -1.614797       -43.9408 
  16   2.0000      -1.144999       -31.1570 
  17   2.0000      -1.144326       -31.1387 
  18   2.0000      -1.144325       -31.1387 
  19   2.0000      -1.144325       -31.1387 
  20   2.0000      -1.144188       -31.1349 
  21   2.0000      -1.144187       -31.1349 
  22   2.0000      -0.612054       -16.6548 
  23   2.0000      -0.577728       -15.7208 
  24   2.0000      -0.577727       -15.7207 
  25   2.0000      -0.571158       -15.5420 
  26   2.0000      -0.571158       -15.5420 
  27   2.0000      -0.571157       -15.5420 
  28   2.0000      -0.516644       -14.0586 
  29   2.0000      -0.488847       -13.3022 
  30   2.0000      -0.488846       -13.3022 
  31   2.0000      -0.488845       -13.3022 
  32   2.0000      -0.485392       -13.2082 
  33   2.0000      -0.485390       -13.2081 
  34   2.0000      -0.482218       -13.1218 
  35   2.0000      -0.482216       -13.1218 
  36   2.0000      -0.482214       -13.1217 
  37   2.0000      -0.474838       -12.9210 
  38   2.0000      -0.474837       -12.9210 
  39   2.0000      -0.474836       -12.9209 
  40   2.0000      -0.470015       -12.7898 
  41   2.0000      -0.470015       -12.7898 
  42   2.0000      -0.470015       -12.7897 
  43   2.0000      -0.424173       -11.5423 
  44   2.0000      -0.424172       -11.5423 
  45   2.0000      -0.424170       -11.5422 
  46   2.0000      -0.251100        -6.8328 
  47   2.0000      -0.251099        -6.8327 
  48   2.0000      -0.251096        -6.8327 
  49   0.0000      -0.076543        -2.0828 
  50   0.0000      -0.076540        -2.0828 
  51   0.0000      -0.076535        -2.0826 
  52   0.0000      -0.051720        -1.4074 
  53   0.0000      -0.051719        -1.4073 
  54   0.0000      -0.051717        -1.4073 
  55   0.0000      -0.006292        -0.1712 
  56   0.0000      -0.006291        -0.1712 
  57   0.0000      -0.006290        -0.1712 
  58   0.0000       0.024559         0.6683 
  59   0.0000       0.038133         1.0377 
*Only the first 10 virtual orbitals were printed.

                    ********************************
                    * MULLIKEN POPULATION ANALYSIS *
                    ********************************

-----------------------
MULLIKEN ATOMIC CHARGES
-----------------------
   0 W :   -0.545896
   1 C :    0.129459
   2 O :   -0.038472
   3 C :    0.129419
   4 O :   -0.038447
   5 C :    0.129413
   6 C :    0.129489
   7 C :    0.129458
   8 O :   -0.038472
   9 C :    0.129485
  10 O :   -0.038448
  11 O :   -0.038494
  12 O :   -0.038495
Sum of atomic charges:    0.0000000

--------------------------------
MULLIKEN REDUCED ORBITAL CHARGES
--------------------------------
  0 W s       :     2.636916  s :     2.636916
      pz      :     2.088042  p :     6.264146
      px      :     2.088056
      py      :     2.088048
      dz2     :     0.970505  d :     5.595538
      dxz     :     1.294176
      dyz     :     1.142191
      dx2y2   :     1.038407
      dxy     :     1.150258
      f0      :     0.009193  f :     0.049296
      f+1     :     0.007335
      f-1     :     0.007856
      f+2     :     0.004805
      f-2     :     0.003638
      f+3     :     0.007317
      f-3     :     0.009152

  1 C s       :     3.419633  s :     3.419633
      pz      :     0.716477  p :     2.375629
      px      :     0.702336
      py      :     0.956816
      dz2     :     0.010934  d :     0.075278
      dxz     :     0.005361
      dyz     :     0.020287
      dx2y2   :     0.018101
      dxy     :     0.020596

  2 O s       :     3.736153  s :     3.736153
      pz      :     1.446455  p :     4.280038
      px      :     1.450208
      py      :     1.383375
      dz2     :     0.003055  d :     0.022281
      dxz     :     0.001399
      dyz     :     0.006118
      dx2y2   :     0.005870
      dxy     :     0.005839

  3 C s       :     3.419662  s :     3.419662
      pz      :     0.984943  p :     2.375641
      px      :     0.685550
      py      :     0.705148
      dz2     :     0.022842  d :     0.075278
      dxz     :     0.022936
      dyz     :     0.022292
      dx2y2   :     0.003653
      dxy     :     0.003554

  4 O s       :     3.736131  s :     3.736131
      pz      :     1.376029  p :     4.280034
      px      :     1.454557
      py      :     1.449448
      dz2     :     0.008078  d :     0.022281
      dxz     :     0.006030
      dyz     :     0.006413
      dx2y2   :     0.000879
      dxy     :     0.000881

  5 C s       :     3.419672  s :     3.419672
      pz      :     0.984895  p :     2.375636
      px      :     0.685625
      py      :     0.705116
      dz2     :     0.022843  d :     0.075278
      dxz     :     0.022932
      dyz     :     0.022290
      dx2y2   :     0.003657
      dxy     :     0.003557

  6 C s       :     3.419654  s :     3.419654
      pz      :     0.674147  p :     2.375579
      px      :     0.987698
      py      :     0.713734
      dz2     :     0.005756  d :     0.075278
      dxz     :     0.023495
      dyz     :     0.003466
      dx2y2   :     0.020365
      dxy     :     0.022196

  7 C s       :     3.419635  s :     3.419635
      pz      :     0.716538  p :     2.375629
      px      :     0.702239
      py      :     0.956851
      dz2     :     0.010940  d :     0.075278
      dxz     :     0.005360
      dyz     :     0.020288
      dx2y2   :     0.018091
      dxy     :     0.020599

  8 O s       :     3.736153  s :     3.736153
      pz      :     1.446478  p :     4.280038
      px      :     1.450178
      py      :     1.383382
      dz2     :     0.003054  d :     0.022281
      dxz     :     0.001400
      dyz     :     0.006116
      dx2y2   :     0.005871
      dxy     :     0.005840

  9 C s       :     3.419661  s :     3.419661
      pz      :     0.674157  p :     2.375577
      px      :     0.987704
      py      :     0.713717
      dz2     :     0.005757  d :     0.075278
      dxz     :     0.023495
      dyz     :     0.003465
      dx2y2   :     0.020364
      dxy     :     0.022197

 10 O s       :     3.736132  s :     3.736132
      pz      :     1.376012  p :     4.280035
      px      :     1.454585
      py      :     1.449438
      dz2     :     0.008078  d :     0.022281
      dxz     :     0.006030
      dyz     :     0.006415
      dx2y2   :     0.000878
      dxy     :     0.000880

 11 O s       :     3.736184  s :     3.736184
      pz      :     1.457576  p :     4.280029
      px      :     1.375268
      py      :     1.447185
      dz2     :     0.002304  d :     0.022281
      dxz     :     0.005857
      dyz     :     0.000827
      dx2y2   :     0.006658
      dxy     :     0.006636

 12 O s       :     3.736184  s :     3.736184
      pz      :     1.457576  p :     4.280030
      px      :     1.375271
      py      :     1.447182
      dz2     :     0.002303  d :     0.022281
      dxz     :     0.005857
      dyz     :     0.000827
      dx2y2   :     0.006658
      dxy     :     0.006636



                     *******************************
                     * LOEWDIN POPULATION ANALYSIS *
                     *******************************

----------------------
LOEWDIN ATOMIC CHARGES
----------------------
   0 W :   -1.181756
   1 C :    0.150236
   2 O :    0.046723
   3 C :    0.150230
   4 O :    0.046728
   5 C :    0.150229
   6 C :    0.150240
   7 C :    0.150235
   8 O :    0.046723
   9 C :    0.150240
  10 O :    0.046727
  11 O :    0.046723
  12 O :    0.046722

-------------------------------
LOEWDIN REDUCED ORBITAL CHARGES
-------------------------------
  0 W s       :     2.441669  s :     2.441669
      pz      :     2.287051  p :     6.861160
      px      :     2.287055
      py      :     2.287055
      dz2     :     1.048758  d :     5.709022
      dxz     :     1.251398
      dyz     :     1.156267
      dx2y2   :     1.091307
      dxy     :     1.161292
      f0      :     0.032158  f :     0.169905
      f+1     :     0.025851
      f-1     :     0.026942
      f+2     :     0.015803
      f-2     :     0.011747
      f+3     :     0.024888
      f-3     :     0.032517

  1 C s       :     3.144121  s :     3.144121
      pz      :     0.751160  p :     2.546229
      px      :     0.732847
      py      :     1.062222
      dz2     :     0.022323  d :     0.159414
      dxz     :     0.010675
      dyz     :     0.043421
      dx2y2   :     0.040561
      dxy     :     0.042435

  2 O s       :     3.516344  s :     3.516344
      pz      :     1.446498  p :     4.402145
      px      :     1.442531
      py      :     1.513117
      dz2     :     0.004434  d :     0.034787
      dxz     :     0.001920
      dyz     :     0.009734
      dx2y2   :     0.010098
      dxy     :     0.008602

  3 C s       :     3.144123  s :     3.144123
      pz      :     1.098602  p :     2.546232
      px      :     0.711134
      py      :     0.736496
      dz2     :     0.054118  d :     0.159415
      dxz     :     0.045184
      dyz     :     0.046334
      dx2y2   :     0.006902
      dxy     :     0.006876

  4 O s       :     3.516341  s :     3.516341
      pz      :     1.520895  p :     4.402143
      px      :     1.437920
      py      :     1.443328
      dz2     :     0.015003  d :     0.034787
      dxz     :     0.007974
      dyz     :     0.009626
      dx2y2   :     0.001054
      dxy     :     0.001131

  5 C s       :     3.144127  s :     3.144127
      pz      :     1.098542  p :     2.546230
      px      :     0.711230
      py      :     0.736457
      dz2     :     0.054114  d :     0.159414
      dxz     :     0.045184
      dyz     :     0.046326
      dx2y2   :     0.006909
      dxy     :     0.006882

  6 C s       :     3.144124  s :     3.144124
      pz      :     0.696372  p :     2.546221
      px      :     1.102235
      py      :     0.747614
      dz2     :     0.014889  d :     0.159415
      dxz     :     0.044855
      dyz     :     0.006566
      dx2y2   :     0.045858
      dxy     :     0.047247

  7 C s       :     3.144122  s :     3.144122
      pz      :     0.751242  p :     2.546229
      px      :     0.732726
      py      :     1.062261
      dz2     :     0.022332  d :     0.159414
      dxz     :     0.010671
      dyz     :     0.043430
      dx2y2   :     0.040549
      dxy     :     0.042432

  8 O s       :     3.516344  s :     3.516344
      pz      :     1.446483  p :     4.402145
      px      :     1.442553
      py      :     1.513109
      dz2     :     0.004434  d :     0.034787
      dxz     :     0.001921
      dyz     :     0.009728
      dx2y2   :     0.010096
      dxy     :     0.008609

  9 C s       :     3.144126  s :     3.144126
      pz      :     0.696387  p :     2.546220
      px      :     1.102245
      py      :     0.747588
      dz2     :     0.014890  d :     0.159415
      dxz     :     0.044857
      dyz     :     0.006565
      dx2y2   :     0.045857
      dxy     :     0.047246

 10 O s       :     3.516341  s :     3.516341
      pz      :     1.520905  p :     4.402144
      px      :     1.437903
      py      :     1.443336
      dz2     :     0.015007  d :     0.034787
      dxz     :     0.007968
      dyz     :     0.009630
      dx2y2   :     0.001053
      dxy     :     0.001130

 11 O s       :     3.516347  s :     3.516347
      pz      :     1.434746  p :     4.402143
      px      :     1.521686
      py      :     1.445711
      dz2     :     0.004756  d :     0.034787
      dxz     :     0.007064
      dyz     :     0.000996
      dx2y2   :     0.011530
      dxy     :     0.010442

 12 O s       :     3.516347  s :     3.516347
      pz      :     1.434742  p :     4.402144
      px      :     1.521684
      py      :     1.445718
      dz2     :     0.004756  d :     0.034787
      dxz     :     0.007063
      dyz     :     0.000996
      dx2y2   :     0.011529
      dxy     :     0.010443



                      *****************************
                      * MAYER POPULATION ANALYSIS *
                      *****************************

  NA   - Mulliken gross atomic population
  ZA   - Total nuclear charge
  QA   - Mulliken gross atomic charge
  VA   - Mayer's total valence
  BVA  - Mayer's bonded valence
  FA   - Mayer's free valence

  ATOM       NA         ZA         QA         VA         BVA        FA
  0 W     14.5459    14.0000    -0.5459     5.8560     5.8560     0.0000
  1 C      5.8705     6.0000     0.1295     3.4906     3.4906     0.0000
  2 O      8.0385     8.0000    -0.0385     2.6058     2.6058     0.0000
  3 C      5.8706     6.0000     0.1294     3.4906     3.4906    -0.0000
  4 O      8.0384     8.0000    -0.0384     2.6058     2.6058     0.0000
  5 C      5.8706     6.0000     0.1294     3.4906     3.4906     0.0000
  6 C      5.8705     6.0000     0.1295     3.4904     3.4904    -0.0000
  7 C      5.8705     6.0000     0.1295     3.4906     3.4906     0.0000
  8 O      8.0385     8.0000    -0.0385     2.6058     2.6058     0.0000
  9 C      5.8705     6.0000     0.1295     3.4904     3.4904     0.0000
 10 O      8.0384     8.0000    -0.0384     2.6058     2.6058    -0.0000
 11 O      8.0385     8.0000    -0.0385     2.6057     2.6057     0.0000
 12 O      8.0385     8.0000    -0.0385     2.6057     2.6057     0.0000

  Mayer bond orders larger than 0.100000
B(  0-W ,  1-C ) :   0.8600 B(  0-W ,  2-O ) :   0.1160 B(  0-W ,  3-C ) :   0.8600 
B(  0-W ,  4-O ) :   0.1160 B(  0-W ,  5-C ) :   0.8600 B(  0-W ,  6-C ) :   0.8600 
B(  0-W ,  7-C ) :   0.8600 B(  0-W ,  8-O ) :   0.1160 B(  0-W ,  9-C ) :   0.8600 
B(  0-W , 10-O ) :   0.1160 B(  0-W , 11-O ) :   0.1160 B(  0-W , 12-O ) :   0.1160 
B(  1-C ,  8-O ) :   2.4185 B(  2-O ,  7-C ) :   2.4185 B(  3-C , 10-O ) :   2.4185 
B(  4-O ,  5-C ) :   2.4185 B(  6-C , 12-O ) :   2.4184 B(  9-C , 11-O ) :   2.4184 


-------
TIMINGS
-------

Total SCF time: 0 days 0 hours 0 min 40 sec 

Total time                  ....      40.417 sec
Sum of individual times     ....      37.960 sec  ( 93.9%)

SCF preparation             ....       2.158 sec  (  5.3%)
Fock matrix formation       ....      22.625 sec  ( 56.0%)
  Startup                   ....       0.954 sec  (  4.2% of F)
  Split-RI-J                ....       0.693 sec  (  3.1% of F)
  Chain of spheres X        ....       8.345 sec  ( 36.9% of F)
  XC integration            ....       5.499 sec  ( 24.3% of F)
    Basis function eval.    ....       0.096 sec  (  1.8% of XC)
    Density eval.           ....       0.069 sec  (  1.3% of XC)
    XC-Functional eval.     ....       0.013 sec  (  0.2% of XC)
    XC-Potential eval.      ....       0.063 sec  (  1.1% of XC)
Diagonalization             ....       0.000 sec  (  0.0%)
Density matrix formation    ....       2.639 sec  (  6.5%)
Total Energy calculation    ....       0.095 sec  (  0.2%)
Population analysis         ....       2.395 sec  (  5.9%)
Orbital Transformation      ....       2.186 sec  (  5.4%)
Orbital Orthonormalization  ....       0.000 sec  (  0.0%)
DIIS solution               ....       0.258 sec  (  0.6%)
SOSCF solution              ....       5.605 sec  ( 13.9%)
Finished LeanSCF after  44.0 sec

Maximum memory used throughout the entire LEANSCF-calculation: 26.6 MB


           ************************************************************
           *        Program running with 22 parallel MPI-processes    *
           *              working on a common directory               *
           ************************************************************

------------------------------------------------------------------------------
                         ORCA PROPERTY INTEGRAL CALCULATIONS
------------------------------------------------------------------------------

GBWName                                   ... FRQ_tungsten_hexacarbonyl_f.gbw
Number of atoms                           ...     13
Number of basis functions                 ...    200
Max core memory                           ...    750 MB

Dipole integrals                          ... YES
Quadrupole integrals                      ...  NO
Linear momentum integrals                 ...  NO
Angular momentum integrals                ...  NO
Higher moments length integrals           ...  NO
Higher moments velocity integrals         ...  NO
Kinetic energy integrals                  ...  NO
GIAO right hand sides                     ...  NO
GIAO dipole derivative integrals          ...  NO
SOC integrals                             ...  NO
EPR diamagnetic integrals (GIAO)          ...  NO
EPR gauge integrals                       ...  NO
Field gradient integrals                  ...  NO (   0 nuclei)
Spin-dipole/Fermi contact integrals       ...  NO (   0 nuclei)
Contact density integrals                 ...  NO (   0 nuclei)
Nucleus-orbit integrals                   ...  NO (   0 nuclei)
Geometric perturbations                   ... YES (  13 nuclei)

Choice of electric origin   ... Center of mass
Position of electric origin ... (  0.4323,  2.6431,  0.0644) 
Choice of magnetic origin   ... GIAO
Position of magnetic origin ... (  0.0000,  0.0000,  0.0000) 

Calculating integrals                     ... Electric Dipole (Length)     done (  0.1 sec)
Calculating integrals                     ... Geometrical perturbation right hand sides

-----------------------
GEOMETRIC PERTURBATIONS (13 nuclei)
-----------------------

MaxCore                            ...    750 MB
Number of batches                  ...      1

BATCH   0: Atoms    0 -   12 ( 39 perturbations)
   => H(core) and overlap derivative integrals     ... done (     0.1 sec)
   => Making and storing internal U-coefficients   ... done (     0.2 sec)
   => RI-J derivative integrals                    ... done (     3.4 sec)
   => RI-J response operators                      ... done (     0.1 sec)
   => Chain of spheres derivative integrals        ... done (     5.0 sec)
   => Chain of spheres response operator           ... done (     5.5 sec)
   => ECP derivative integrals                     ... done (    14.2 sec)
   => XC derivative integrals                      ... done (     8.0 sec)
   => XC response operators                        ... done (     2.0 sec)
   => Completing and storing right hand sides      ... done (     0.1 sec)
   => Total time for right hand sides =  43.1 sec

  geometrical perturbations done ( 45.0 sec)

Property integrals calculated in  45.3 sec

Maximum memory used throughout the entire PROPINT-calculation: 161.1 MB

-------------------------   --------------------
FINAL SINGLE POINT ENERGY      -746.719200752045
-------------------------   --------------------



           ************************************************************
           *        Program running with 22 parallel MPI-processes    *
           *              working on a common directory               *
           ************************************************************
------------------------------------------------------------------------------
                            ORCA SCF RESPONSE CALCULATION
------------------------------------------------------------------------------

GBWName                                 ... FRQ_tungsten_hexacarbonyl_f.gbw
Number of atoms                         ...     13
Number of basis functions               ...    200
Max core memory                         ...    750 MB

Electric field perturbation             ...  NO
Quadrupolar field perturbation          ...  NO
Magnetic field perturbation (no GIAO)   ...  NO
Magnetic field perturbation (with GIAO) ...  NO
Linear momentum (velocity) perturbation ...  NO
Spin-orbit coupling perturbation        ...  NO
Choice of electric origin               ... Center of mass
Position of electric origin             ...     0.432270     2.643058     0.064422
Choice of magnetic origin               ... GIAO
Position of magnetic origin             ...     0.000000     0.000000     0.000000
Nuclear geometric perturbations         ... YES (  39 perturbations)
Nucleus-orbit perturbations             ...  NO (   0 perturbations)
Spin-dipole/Fermi contact perturbations ...  NO (   0 perturbations)

Total number of real perturbations      ...     39
Total number of imaginary perturbations ...      0
Total number of triplet perturbations   ...      0
Total number of SOC perturbations       ...      0

Using XC Grid                  ... (FRQ_tungsten_hexacarbonyl_f.grid_cpscf.tmp) 
Recalculating density on grid  ... (FRQ_tungsten_hexacarbonyl_f.grho_cpscf0.tmp) done
Calculating the xc-kernel      ... (FRQ_tungsten_hexacarbonyl_f.fxc_cpscf0.tmp) done

                                **********************
                                * REAL PERTURBATIONS *
                                **********************



-------------------
SHARK CP-SCF DRIVER
-------------------

Dimension of the orbital basis          ...    200
Dimension of the CPSCF-problem          ...   7399
Number of operators                     ...      1
Max. number of iterations               ...    128
Convergence Tolerance                   ... 3.0e-06
Number of perturbations                 ...     39
Perturbation type                       ... REAL

----------------------------
POPLE LINEAR EQUATION SOLVER
----------------------------

  ITERATION   0:   ||err||_max =   6.0810e-01 (   5.4 sec   0/ 39 done)
  ITERATION   1:   ||err||_max =   9.3933e-02 (   6.7 sec   0/ 39 done)
  ITERATION   2:   ||err||_max =   3.7026e-02 (   5.3 sec   0/ 39 done)
  ITERATION   3:   ||err||_max =   1.0009e-02 (   4.9 sec   0/ 39 done)
  ITERATION   4:   ||err||_max =   3.0838e-03 (   4.8 sec   0/ 39 done)
  ITERATION   5:   ||err||_max =   1.3280e-03 (   5.0 sec   0/ 39 done)
  ITERATION   6:   ||err||_max =   4.6295e-04 (   5.7 sec   0/ 39 done)
  ITERATION   7:   ||err||_max =   1.4436e-04 (   5.6 sec   0/ 39 done)
  ITERATION   8:   ||err||_max =   5.9709e-05 (   5.0 sec   3/ 39 done)
  ITERATION   9:   ||err||_max =   1.2241e-05 (  15.7 sec   3/ 39 done)
  ITERATION  10:   ||err||_max =   7.0978e-06 (  15.7 sec  25/ 39 done)
  ITERATION  11:   ||err||_max =   1.8819e-06 (   5.4 sec  39/ 39 done)

CP-SCF equations solved in 110.2 sec
Response densities calculated in   0.0 sec

Maximum memory used throughout the entire SCFRESP-calculation: 162.7 MB


           ************************************************************
           *        Program running with 22 parallel MPI-processes    *
           *              working on a common directory               *
           ************************************************************

------------------------------------------------------------------------------
                              ORCA PROPERTY CALCULATIONS
------------------------------------------------------------------------------

GBWName                                 ... FRQ_tungsten_hexacarbonyl_f.gbw
Number of atoms                         ...     13
Number of basis functions               ...    200
Max core memory                         ...    750 MB

Electric properties:
Dipole moment                           ... YES
Quadrupole moment                       ...  NO
Static polarizability (Dipole/Dipole)   ...  NO
Static polarizability (Dipole/Quad.)    ...  NO
Static polarizability (Quad./Quad.)     ...  NO
Static polarizability (Velocity)        ...  NO

Atomic electric properties:
Dipole moment                           ...  NO
Quadrupole moment                       ...  NO
Static polarizability                   ...  NO

Choice of electric origin               ... Center of mass
Position of electric origin             ...     0.432270     2.643058     0.064422

General magnetic properties:
Magnetizability                         ...  NO

EPR properties:
g-Tensor (aka g-matrix)                 ...  NO
Zero-Field splitting spin-orbit         ...  NO
Zero-field splitting spin-spin          ...  NO
Hyperfine couplings                     ...  NO (   0 nuclei)
Quadrupole couplings                    ...  NO (   0 nuclei)
Contact density                         ...  NO (   0 nuclei)

NMR properties:
Chemical shifts                         ...  NO (   0 nuclei)
Spin-rotation constants                 ...  NO (   0 nuclei)
Spin-spin couplings                     ...  NO (   0 nuclei,    0 pairs)

Choice of magnetic origin               ... GIAO
Position of magnetic origin             ...     0.000000     0.000000     0.000000

Properties with geometric perturbations:
SCF Hessian                             ... YES
IR spectrum                             ... YES
VCD spectrum                            ...  NO
X-ray spectroscopy properties:
SCF XES/XAS/RIXS spectra                ...  NO


-------------
DIPOLE MOMENT
-------------

Method             : SCF
Type of density    : Electron Density
Multiplicity       :   1
Irrep              :   0
Energy             :  -746.7192007520450261 Eh
Relativity type    : 
Basis              : AO
                                X                 Y                 Z
Electronic contribution:      0.001164814      -0.002165945      -0.003063503
Nuclear contribution   :     -0.001140861       0.002131048       0.003011370
                        -----------------------------------------
Total Dipole Moment    :      0.000023952      -0.000034896      -0.000052133
                        -----------------------------------------
Magnitude (a.u.)       :      0.000067151
Magnitude (Debye)      :      0.000170685



--------------------
Rotational spectrum 
--------------------
 
Rotational constants in cm-1:             0.019150             0.019149             0.019148 
Rotational constants in MHz :           574.112403           574.075221           574.046822 

Dipole components along the rotational axes: 
x,y,z [a.u.] :    -0.000051     0.000023    -0.000037 
x,y,z [Debye]:    -0.000128     0.000060    -0.000095 

 

Dipole moment calculation done in   1.0 sec 

-----------
SCF HESSIAN
-----------

Occupied/Occupied contributions to the Hessian:
   => Occupied/Occupied contributions              ... done (  2.2 sec)
Perturbed density contributions to the Hessian:
   => Perturbed density contributions              ... done (  0.2 sec)
Explicit contributions to the Hessian:
   => Nuclear repulsion Hessian                    ... done (  0.0 sec)
   => HCore and overlap Hessian                    ... done (  0.3 sec)
   => ECP Hessian                                  ... done (  2.7 sec)
   => RI-J Hessian                                 ... done (  1.2 sec)
   => COSX Hessian                                 ... done ( 76.7 sec)
   => XC-Hessian                                   ... done (  6.5 sec)
   => Explicit contributions done
Dipole derivatives                                 ... done (  0.8 sec)
Mass weighting the Hessian           ... done
Calculating normal modes             ... done
Scaling frequencies                  ... done

-----------------------
VIBRATIONAL FREQUENCIES
-----------------------

Scaling factor for frequencies =  1.000000000  (already applied!)

     0:       0.00 cm**-1
     1:       0.00 cm**-1
     2:       0.00 cm**-1
     3:       0.00 cm**-1
     4:       0.00 cm**-1
     5:       0.00 cm**-1
     6:      61.13 cm**-1
     7:      61.24 cm**-1
     8:      61.30 cm**-1
     9:      85.47 cm**-1
    10:      85.49 cm**-1
    11:      85.60 cm**-1
    12:      87.22 cm**-1
    13:      87.27 cm**-1
    14:      87.34 cm**-1
    15:     359.80 cm**-1
    16:     359.84 cm**-1
    17:     359.85 cm**-1
    18:     359.86 cm**-1
    19:     359.99 cm**-1
    20:     360.08 cm**-1
    21:     405.06 cm**-1
    22:     405.06 cm**-1
    23:     425.33 cm**-1
    24:     476.96 cm**-1
    25:     477.02 cm**-1
    26:     477.12 cm**-1
    27:     537.40 cm**-1
    28:     537.49 cm**-1
    29:     537.54 cm**-1
    30:     602.56 cm**-1
    31:     602.64 cm**-1
    32:     602.70 cm**-1
    33:    2087.14 cm**-1
    34:    2087.15 cm**-1
    35:    2087.15 cm**-1
    36:    2112.65 cm**-1
    37:    2112.66 cm**-1
    38:    2208.41 cm**-1


------------
NORMAL MODES
------------

These modes are the Cartesian displacements weighted by the diagonal matrix
M(i,i)=1/sqrt(m[i]) where m[i] is the mass of the displaced atom
Thus, these vectors are normalized but *not* orthogonal

                  0          1          2          3          4          5    
      0       0.000000   0.000000   0.000000   0.000000   0.000000   0.000000
      1       0.000000   0.000000   0.000000   0.000000   0.000000   0.000000
      2       0.000000   0.000000   0.000000   0.000000   0.000000   0.000000
      3       0.000000   0.000000   0.000000   0.000000   0.000000   0.000000
      4       0.000000   0.000000   0.000000   0.000000   0.000000   0.000000
      5       0.000000   0.000000   0.000000   0.000000   0.000000   0.000000
      6       0.000000   0.000000   0.000000   0.000000   0.000000   0.000000
      7       0.000000   0.000000   0.000000   0.000000   0.000000   0.000000
      8       0.000000   0.000000   0.000000   0.000000   0.000000   0.000000
      9       0.000000   0.000000   0.000000   0.000000   0.000000   0.000000
     10       0.000000   0.000000   0.000000   0.000000   0.000000   0.000000
     11       0.000000   0.000000   0.000000   0.000000   0.000000   0.000000
     12       0.000000   0.000000   0.000000   0.000000   0.000000   0.000000
     13       0.000000   0.000000   0.000000   0.000000   0.000000   0.000000
     14       0.000000   0.000000   0.000000   0.000000   0.000000   0.000000
     15       0.000000   0.000000   0.000000   0.000000   0.000000   0.000000
     16       0.000000   0.000000   0.000000   0.000000   0.000000   0.000000
     17       0.000000   0.000000   0.000000   0.000000   0.000000   0.000000
     18       0.000000   0.000000   0.000000   0.000000   0.000000   0.000000
     19       0.000000   0.000000   0.000000   0.000000   0.000000   0.000000
     20       0.000000   0.000000   0.000000   0.000000   0.000000   0.000000
     21       0.000000   0.000000   0.000000   0.000000   0.000000   0.000000
     22       0.000000   0.000000   0.000000   0.000000   0.000000   0.000000
     23       0.000000   0.000000   0.000000   0.000000   0.000000   0.000000
     24       0.000000   0.000000   0.000000   0.000000   0.000000   0.000000
     25       0.000000   0.000000   0.000000   0.000000   0.000000   0.000000
     26       0.000000   0.000000   0.000000   0.000000   0.000000   0.000000
     27       0.000000   0.000000   0.000000   0.000000   0.000000   0.000000
     28       0.000000   0.000000   0.000000   0.000000   0.000000   0.000000
     29       0.000000   0.000000   0.000000   0.000000   0.000000   0.000000
     30       0.000000   0.000000   0.000000   0.000000   0.000000   0.000000
     31       0.000000   0.000000   0.000000   0.000000   0.000000   0.000000
     32       0.000000   0.000000   0.000000   0.000000   0.000000   0.000000
     33       0.000000   0.000000   0.000000   0.000000   0.000000   0.000000
     34       0.000000   0.000000   0.000000   0.000000   0.000000   0.000000
     35       0.000000   0.000000   0.000000   0.000000   0.000000   0.000000
     36       0.000000   0.000000   0.000000   0.000000   0.000000   0.000000
     37       0.000000   0.000000   0.000000   0.000000   0.000000   0.000000
     38       0.000000   0.000000   0.000000   0.000000   0.000000   0.000000
                  6          7          8          9         10         11    
      0       0.000315   0.000316  -0.000021  -0.076627  -0.102781   0.052793
      1      -0.000476   0.000095   0.000411  -0.114205   0.076990  -0.016002
      2       0.000057  -0.000214   0.000251  -0.017434  -0.052365  -0.127212
      3       0.136121  -0.105700  -0.096299  -0.008057   0.111047  -0.014689
      4      -0.029400  -0.013494   0.089316  -0.111999   0.037138   0.090816
      5       0.039955  -0.122410   0.144136   0.092761   0.001705   0.066995
      6       0.299163  -0.233253  -0.211948   0.098901   0.413965  -0.114739
      7      -0.063867  -0.029916   0.195946  -0.086941  -0.030227   0.235318
      8       0.087878  -0.269023   0.316835   0.242541   0.083172   0.348439
      9      -0.082906   0.115298   0.144736   0.034636   0.061054  -0.082701
     10       0.177167   0.085252   0.014818   0.048545  -0.084586  -0.054021
     11      -0.040507  -0.052555  -0.035177  -0.104589  -0.041193  -0.103342
     12      -0.182921   0.253180   0.318667   0.196159   0.297624  -0.273438
     13       0.390799   0.187512   0.031968   0.286945  -0.313558  -0.100786
     14      -0.089226  -0.115436  -0.077843  -0.216788  -0.016288  -0.046829
     15      -0.082861   0.115260   0.144741   0.034459   0.060953  -0.083214
     16       0.177191   0.085272   0.014819   0.048928  -0.084623  -0.053874
     17      -0.040496  -0.052575  -0.035213  -0.104694  -0.041207  -0.103252
     18      -0.053374  -0.009687  -0.048414   0.003014  -0.132146   0.077186
     19      -0.147653  -0.071823  -0.104289   0.107766   0.017511  -0.030853
     20       0.000548   0.175026  -0.108995   0.018341   0.059843   0.085572
     21       0.136134  -0.105728  -0.096320  -0.007540   0.111072  -0.014935
     22      -0.029368  -0.013505   0.089316  -0.112035   0.037148   0.090887
     23       0.039961  -0.122381   0.144142   0.093039   0.001626   0.066971
     24       0.299122  -0.233165  -0.211903   0.097689   0.413844  -0.114176
     25      -0.063981  -0.029834   0.195946  -0.086915  -0.030331   0.235131
     26       0.087883  -0.269093   0.316818   0.241901   0.083386   0.348498
     27      -0.053355  -0.009646  -0.048423   0.002947  -0.132145   0.077351
     28      -0.147605  -0.071740  -0.104273   0.107493   0.017465  -0.030518
     29       0.000509   0.175058  -0.109083   0.018719   0.059952   0.085910
     30      -0.183006   0.253260   0.318659   0.196566   0.297869  -0.272274
     31       0.390733   0.187493   0.031991   0.286055  -0.313439  -0.101146
     32      -0.089302  -0.115354  -0.077711  -0.216497  -0.016162  -0.047096
     33      -0.117877  -0.021702  -0.106632   0.123211  -0.151066   0.099582
     34      -0.324196  -0.158089  -0.230161   0.422991  -0.076136  -0.046583
     35       0.001034   0.385646  -0.240495   0.069949   0.218651   0.392715
     36      -0.117915  -0.021796  -0.106616   0.123385  -0.151080   0.099168
     37      -0.324269  -0.158229  -0.230191   0.423647  -0.076027  -0.047380
     38       0.001103   0.385592  -0.240343   0.069046   0.218411   0.391901
                 12         13         14         15         16         17    
      0       0.000047   0.000103   0.000009  -0.049839  -0.053084   0.000440
      1       0.000114   0.000068  -0.000005   0.096424   0.067996  -0.011615
      2       0.000105  -0.000089   0.000046  -0.086461   0.105004  -0.020133
      3      -0.055088  -0.168636  -0.045829  -0.166011  -0.019841   0.144063
      4      -0.018994   0.042769   0.074433  -0.310542   0.022216   0.036702
      5      -0.093696  -0.032470   0.149415   0.084547   0.116615   0.180891
      6       0.132820   0.406299   0.110303  -0.085623   0.020111   0.070648
      7       0.045884  -0.102283  -0.179472  -0.317860  -0.039151   0.028069
      8       0.225050   0.078332  -0.360250   0.136898  -0.004329   0.098887
      9       0.116246  -0.083648   0.121528   0.006841  -0.057729   0.299092
     10      -0.145873  -0.019925   0.107745   0.152475  -0.157835  -0.304354
     11       0.023288   0.024250  -0.061087   0.176724  -0.340107   0.119333
     12      -0.280315   0.201087  -0.292892   0.048281  -0.021275   0.150061
     13       0.351565   0.047524  -0.259509   0.037312  -0.157684  -0.132298
     14      -0.055449  -0.058391   0.147409   0.206650  -0.349923   0.094973
     15      -0.116215   0.083478  -0.121497   0.028547  -0.187324  -0.262196
     16       0.145855   0.019781  -0.107651   0.125624  -0.026868   0.345425
     17      -0.022932  -0.024272   0.061160   0.180848  -0.355602   0.025708
     18      -0.020264   0.064113   0.007466   0.240868   0.303791   0.079686
     19      -0.015095   0.172970   0.047104  -0.052809  -0.032205   0.205026
     20      -0.159109   0.008648  -0.105258  -0.091565   0.108992   0.296950
     21       0.055104   0.168593   0.045792  -0.143766  -0.067476  -0.136097
     22       0.019096  -0.042450  -0.074481  -0.311371   0.008000  -0.029153
     23       0.093448   0.032425  -0.149448   0.100551   0.041545  -0.215795
     24      -0.132900  -0.406683  -0.110423  -0.075023  -0.002987  -0.065126
     25      -0.045938   0.102919   0.179355  -0.318437  -0.046001  -0.003533
     26      -0.225963  -0.078201   0.360035   0.144675  -0.040802  -0.093833
     27       0.020165  -0.063989  -0.007474   0.252334   0.261555  -0.126493
     28       0.014902  -0.173216  -0.047144  -0.026657  -0.111819  -0.202690
     29       0.158902  -0.008489   0.105164  -0.071540  -0.032319  -0.318515
     30       0.280259  -0.201807   0.292954   0.058735  -0.083925  -0.122204
     31      -0.351927  -0.048085   0.259782   0.024354  -0.094191   0.182622
     32       0.056061   0.058554  -0.147315   0.208784  -0.357286   0.049404
     33       0.048562  -0.154479  -0.018049   0.228293   0.271810   0.031474
     34       0.035786  -0.417696  -0.113664  -0.114179  -0.090788   0.109096
     35       0.382883  -0.020359   0.253471   0.000920  -0.019872   0.157032
     36      -0.048921   0.154462   0.018017   0.233780   0.251367  -0.068443
     37      -0.036602   0.416896   0.113566  -0.101463  -0.129449  -0.088741
     38      -0.383709   0.021014  -0.253841   0.010670  -0.088429  -0.141598
                 18         19         20         21         22         23    
      0       0.118118   0.000811   0.000040   0.000059  -0.000005   0.000004
      1       0.071591   0.002850  -0.000008  -0.000012   0.000002  -0.000008
      2       0.011284   0.000822  -0.000856   0.000005  -0.000020  -0.000011
      3      -0.035664   0.379763   0.137414  -0.093276   0.069849   0.081132
      4      -0.295108  -0.089783  -0.187056  -0.283732   0.212459   0.246396
      5       0.156363   0.112573  -0.353486   0.112929  -0.084451  -0.097801
      6      -0.122555   0.182817   0.066660   0.097666  -0.073123  -0.087555
      7      -0.287307  -0.048043  -0.090839   0.297041  -0.222407  -0.266186
      8       0.108830   0.055135  -0.170972  -0.117981   0.088377   0.105827
      9       0.056043  -0.226507   0.249349   0.072373   0.031093   0.054829
     10      -0.046085  -0.068369   0.267634   0.111654   0.048164   0.084972
     11      -0.205276   0.063747  -0.137635   0.341594   0.146214   0.258247
     12      -0.058311  -0.110789   0.121106  -0.076057  -0.032533  -0.059312
     13      -0.086480  -0.035576   0.129979  -0.117250  -0.050117  -0.091407
     14      -0.168566   0.028525  -0.065494  -0.357378  -0.153077  -0.279103
     15       0.005169   0.224601  -0.247986  -0.072507  -0.031160  -0.055068
     16      -0.002104   0.067481  -0.265617  -0.111624  -0.048114  -0.084905
     17      -0.208772  -0.076591   0.142709  -0.341600  -0.146153  -0.258183
     18      -0.246364   0.073376   0.095452   0.044301   0.370462  -0.259505
     19       0.175184   0.276939   0.245943  -0.016143  -0.135561   0.094930
     20       0.066864  -0.313311   0.063944  -0.004060  -0.034306   0.024071
     21      -0.039280  -0.384760  -0.138097   0.093212  -0.069759  -0.080899
     22      -0.303437   0.075114   0.184816   0.283712  -0.212491  -0.246433
     23       0.132770  -0.104229   0.353277  -0.112989   0.084501   0.097884
     24      -0.124361  -0.187904  -0.067262  -0.097788   0.073185   0.087589
     25      -0.291119   0.032355   0.089087  -0.297035   0.222383   0.266194
     26       0.097225  -0.050072   0.172183   0.117938  -0.088331  -0.105796
     27      -0.258288  -0.070063  -0.096274  -0.044444  -0.370453   0.259483
     28       0.157369  -0.274101  -0.245637   0.016205   0.135529  -0.094908
     29       0.008576   0.314161  -0.064965   0.004097   0.034309  -0.024150
     30      -0.082940   0.108043  -0.120141   0.075908   0.032493   0.059264
     31      -0.065258   0.030386  -0.128449   0.117279   0.050143   0.091433
     32      -0.170467  -0.039649   0.070660   0.357376   0.153140   0.279139
     33      -0.287113   0.035337   0.046083  -0.046503  -0.387789   0.280398
[...]
      2      -0.031620   0.031699  -0.064293   0.000041   0.000038  -0.000060
      3       0.315653  -0.245366  -0.218583   0.153624   0.033992   0.051506
      4      -0.087334  -0.046193   0.195610   0.468328   0.099103   0.154849
      5       0.077206  -0.289578   0.330195  -0.185644  -0.038853  -0.062975
      6      -0.101334   0.071921   0.065016  -0.114899  -0.025027  -0.038395
      7       0.014030   0.003481  -0.066936  -0.350482  -0.074170  -0.116075
      8      -0.018644   0.093338  -0.098908   0.139141   0.029239   0.046845
      9       0.199358  -0.262521  -0.330420  -0.020319  -0.055327   0.095104
     10      -0.407106  -0.191742  -0.053176  -0.031153  -0.087885   0.145644
     11       0.095505   0.105304   0.100455  -0.091218  -0.265896   0.446147
     12      -0.060396   0.077959   0.104331   0.015025   0.041808  -0.071258
     13       0.126613   0.054632   0.020565   0.023028   0.065539  -0.109129
     14      -0.025063  -0.045628  -0.018101   0.068436   0.198927  -0.333878
     15       0.199344  -0.262539  -0.330317  -0.020382  -0.055467   0.095375
     16      -0.407133  -0.191662  -0.053119  -0.031151  -0.087813   0.145579
     17       0.095333   0.105421   0.100626  -0.091245  -0.265779   0.446122
     18      -0.066323  -0.155244   0.001285   0.170568  -0.445275  -0.230651
     19      -0.271370  -0.351226  -0.056387  -0.063652   0.162819   0.083413
     20       0.218938  -0.208332   0.365359  -0.015093   0.042031   0.020307
     21       0.315732  -0.245378  -0.218558   0.153385   0.033914   0.051431
     22      -0.087175  -0.046369   0.195583   0.468355   0.099025   0.154868
     23       0.077174  -0.289481   0.330218  -0.185786  -0.038850  -0.063026
     24      -0.101319   0.071915   0.065022  -0.115077  -0.025084  -0.038451
     25       0.014073   0.003436  -0.066941  -0.350462  -0.074226  -0.116061
     26      -0.018654   0.093363  -0.098904   0.139035   0.029241   0.046807
     27      -0.066288  -0.155242   0.001308   0.170541  -0.445271  -0.230635
     28      -0.271404  -0.351237  -0.056439  -0.063630   0.162786   0.083390
     29       0.218926  -0.208275   0.365319  -0.015110   0.042083   0.020333
     30      -0.060400   0.077959   0.104351   0.014978   0.041703  -0.071056
     31       0.126607   0.054653   0.020579   0.023030   0.065591  -0.109176
     32      -0.025104  -0.045592  -0.018062   0.068416   0.199011  -0.333897
     33       0.033080   0.040201  -0.012363  -0.127739   0.333284   0.172517
     34       0.078846   0.110785   0.021735   0.047318  -0.121853  -0.062630
     35      -0.068530   0.064761  -0.111251   0.011506  -0.031279  -0.015490
     36       0.033087   0.040199  -0.012351  -0.127758   0.333287   0.172529
     37       0.078838   0.110782   0.021719   0.047334  -0.121878  -0.062647
     38      -0.068531   0.064774  -0.111263   0.011492  -0.031241  -0.015471
                 36         37         38    
      0       0.000001   0.000000  -0.000000
      1      -0.000000  -0.000000   0.000000
      2       0.000000  -0.000000   0.000000
      3      -0.131267   0.039909  -0.098034
      4      -0.398929   0.121291  -0.297939
      5       0.158467  -0.048180   0.118355
      6      -0.093997   0.028584  -0.068007
      7      -0.286147   0.087015  -0.207030
      8       0.113749  -0.034590   0.082298
      9       0.067702   0.063335  -0.066264
     10       0.104641   0.097895  -0.102411
     11       0.319105   0.298524  -0.312301
     12       0.048707   0.045555  -0.046168
     13       0.075038   0.070180  -0.071126
     14       0.228904   0.214093  -0.216980
     15      -0.067908  -0.063514   0.066443
     16      -0.104614  -0.097847   0.102365
     17      -0.319144  -0.298494   0.312275
     18      -0.099432   0.427529   0.313694
     19       0.036362  -0.156339  -0.114710
     20       0.009204  -0.039579  -0.029042
     21       0.131063  -0.039853   0.097887
     22       0.398953  -0.121319   0.297954
     23      -0.158589   0.048224  -0.118440
     24       0.094143  -0.028624   0.068112
     25       0.286130  -0.086994   0.207020
     26      -0.113662   0.034558  -0.082237
     27       0.099328  -0.427592  -0.313697
     28      -0.036317   0.156332   0.114690
     29      -0.009206   0.039636   0.029078
     30      -0.048559  -0.045427   0.046039
     31      -0.075056  -0.070214   0.071159
     32      -0.228874  -0.214115   0.216998
     33      -0.071240   0.306687   0.217965
     34       0.026046  -0.112132  -0.079695
     35       0.006604  -0.028428  -0.020203
     36       0.071319  -0.306640  -0.217963
     37      -0.026079   0.112136   0.079709
     38      -0.006603   0.028387   0.020178


-----------
IR SPECTRUM
-----------

 Mode   freq       eps      Int      T**2         TX        TY        TZ
       cm**-1   L/(mol*cm) km/mol    a.u.
----------------------------------------------------------------------------
  6:     61.13   0.000000    0.00  0.000000  ( 0.000046 -0.000096  0.000015)
  7:     61.24   0.000000    0.00  0.000000  ( 0.000074  0.000044 -0.000042)
  8:     61.30   0.000000    0.00  0.000000  ( 0.000003  0.000056  0.000043)
  9:     85.47   0.000076    0.39  0.000279  (-0.009251 -0.013760 -0.002083)
 10:     85.49   0.000076    0.38  0.000277  (-0.012369  0.009214 -0.006277)
 11:     85.60   0.000076    0.39  0.000278  ( 0.006358 -0.001937 -0.015294)
 12:     87.22   0.000000    0.00  0.000000  ( 0.000003  0.000012  0.000011)
 13:     87.27   0.000000    0.00  0.000000  ( 0.000012  0.000005 -0.000008)
 14:     87.34   0.000000    0.00  0.000000  (-0.000000 -0.000001  0.000003)
 15:    359.80   0.010848   54.82  0.009409  ( 0.034845 -0.067396  0.060433)
 16:    359.84   0.010511   53.12  0.009116  ( 0.037292 -0.047782 -0.073768)
 17:    359.85   0.000407    2.06  0.000353  (-0.000356  0.009380  0.016282)
 18:    359.86   0.010820   54.68  0.009383  (-0.082562 -0.050042 -0.007881)
 19:    359.99   0.000007    0.04  0.000006  (-0.000660 -0.002332 -0.000671)
 20:    360.08   0.000001    0.00  0.000000  (-0.000028  0.000013  0.000702)
 21:    405.06   0.000000    0.00  0.000000  (-0.000035  0.000007 -0.000002)
 22:    405.06   0.000000    0.00  0.000000  ( 0.000004 -0.000001  0.000012)
 23:    425.33   0.000000    0.00  0.000000  (-0.000002  0.000004  0.000006)
 24:    476.96   0.000000    0.00  0.000000  (-0.000015 -0.000022 -0.000018)
 25:    477.02   0.000000    0.00  0.000000  (-0.000009 -0.000016  0.000023)
 26:    477.12   0.000000    0.00  0.000000  (-0.000005  0.000003 -0.000020)
 27:    537.40   0.000000    0.00  0.000000  (-0.000081  0.000074 -0.000022)
 28:    537.49   0.000000    0.00  0.000000  (-0.000048  0.000019  0.000017)
 29:    537.54   0.000000    0.00  0.000000  ( 0.000005 -0.000123 -0.000046)
 30:    602.56   0.016429   83.03  0.008509  ( 0.042669 -0.072809  0.037238)
 31:    602.64   0.016422   82.99  0.008503  (-0.063044 -0.056003 -0.037317)
 32:    602.70   0.016429   83.03  0.008507  (-0.052069  0.008162  0.075690)
 33:   2087.14   0.408543  2064.61  0.061084  ( 0.133299  0.163942 -0.128214)
 34:   2087.15   0.408538  2064.59  0.061083  (-0.204842  0.076382 -0.115278)
 35:   2087.15   0.408596  2064.88  0.061092  (-0.036837  0.168464  0.177073)
 36:   2112.65   0.000000    0.00  0.000000  (-0.000069  0.000014 -0.000022)
 37:   2112.66   0.000000    0.00  0.000000  (-0.000026  0.000002  0.000016)
 38:   2208.41   0.000000    0.00  0.000000  ( 0.000002 -0.000003 -0.000005)

* The epsilon (eps) is given for a Dirac delta lineshape.
** The dipole moment derivative (T) already includes vibrational overlap.

The first frequency considered to be a vibration is 6
The total number of vibrations considered is 33


--------------------------
THERMOCHEMISTRY AT 298.15K
--------------------------

Temperature         ...   298.15 K
Pressure            ...     1.00 atm
Total Mass          ...   351.91 AMU
Quasi RRHO          ...     True
Cut-Off Frequency   ...     1.00 cm^-1

Throughout the following assumptions are being made:
  (1) The electronic state is orbitally nondegenerate
  (2) There are no thermally accessible electronically excited states
  (3) Hindered rotations indicated by low frequency modes are not
      treated as such but are treated as vibrations and this may
      cause some error
  (4) All equations used are the standard statistical mechanics
      equations for an ideal gas
  (5) All vibrations are strictly harmonic

freq.      61.13  E(vib)   ...       0.51 
freq.      61.24  E(vib)   ...       0.51 
freq.      61.30  E(vib)   ...       0.51 
freq.      85.47  E(vib)   ...       0.48 
freq.      85.49  E(vib)   ...       0.48 
freq.      85.60  E(vib)   ...       0.48 
freq.      87.22  E(vib)   ...       0.48 
freq.      87.27  E(vib)   ...       0.48 
freq.      87.34  E(vib)   ...       0.48 
freq.     359.80  E(vib)   ...       0.22 
freq.     359.84  E(vib)   ...       0.22 
freq.     359.85  E(vib)   ...       0.22 
freq.     359.86  E(vib)   ...       0.22 
freq.     359.99  E(vib)   ...       0.22 
freq.     360.08  E(vib)   ...       0.22 
freq.     405.06  E(vib)   ...       0.19 
freq.     405.06  E(vib)   ...       0.19 
freq.     425.33  E(vib)   ...       0.18 
freq.     476.96  E(vib)   ...       0.15 
freq.     477.02  E(vib)   ...       0.15 
freq.     477.12  E(vib)   ...       0.15 
freq.     537.40  E(vib)   ...       0.12 
freq.     537.49  E(vib)   ...       0.12 
freq.     537.54  E(vib)   ...       0.12 
freq.     602.56  E(vib)   ...       0.10 
freq.     602.64  E(vib)   ...       0.10 
freq.     602.70  E(vib)   ...       0.10 
freq.    2087.14  E(vib)   ...       0.00 
freq.    2087.15  E(vib)   ...       0.00 
freq.    2087.15  E(vib)   ...       0.00 
freq.    2112.65  E(vib)   ...       0.00 
freq.    2112.66  E(vib)   ...       0.00 
freq.    2208.41  E(vib)   ...       0.00 

------------
INNER ENERGY
------------

The inner energy is: U= E(el) + E(ZPE) + E(vib) + E(rot) + E(trans)
    E(el)   - is the total energy from the electronic structure calculation
              = E(kin-el) + E(nuc-el) + E(el-el) + E(nuc-nuc)
    E(ZPE)  - the the zero temperature vibrational energy from the frequency calculation
    E(vib)  - the the finite temperature correction to E(ZPE) due to population
              of excited vibrational states
    E(rot)  - is the rotational thermal energy
    E(trans)- is the translational thermal energy

Summary of contributions to the inner energy U:
Electronic energy                ...   -746.71920075 Eh
Zero point energy                ...      0.04930764 Eh      30.94 kcal/mol
Thermal vibrational correction   ...      0.01179455 Eh       7.40 kcal/mol
Thermal rotational correction    ...      0.00141627 Eh       0.89 kcal/mol
Thermal translational correction ...      0.00141627 Eh       0.89 kcal/mol
-----------------------------------------------------------------------
Total thermal energy                   -746.65526602 Eh


Summary of corrections to the electronic energy:
(perhaps to be used in another calculation)
Total thermal correction                  0.01462709 Eh       9.18 kcal/mol
Non-thermal (ZPE) correction              0.04930764 Eh      30.94 kcal/mol
-----------------------------------------------------------------------
Total correction                          0.06393473 Eh      40.12 kcal/mol


--------
ENTHALPY
--------

The enthalpy is H = U + kB*T
                kB is Boltzmann's constant
Total thermal energy              ...   -746.65526602 Eh 
Thermal Enthalpy correction       ...      0.00094421 Eh       0.59 kcal/mol
-----------------------------------------------------------------------
Total Enthalpy                    ...   -746.65432181 Eh


Note: Only C1 symmetry has been detected, increase convergence thresholds 
      if your molecule has a higher symmetry. Symmetry factor of 1.0 is   
      used for the rotational entropy correction. 
 

Note: Rotational entropy computed according to Herzberg 
Infrared and Raman Spectra, Chapter V,1, Van Nostrand Reinhold, 1945 
Point Group:  C1, Symmetry Number:   1  
Rotational constants in cm-1:     0.019150     0.019149     0.019148 

Vibrational entropy computed according to the QRRHO of S. Grimme
Chem.Eur.J. 2012 18 9955 using a reference frequency of 100.0 cm-1


-------
ENTROPY
-------

The entropy contributions are T*S = T*(S(el)+S(vib)+S(rot)+S(trans))
     S(el)   - electronic entropy
     S(vib)  - vibrational entropy
     S(rot)  - rotational entropy
     S(trans)- translational entropy
The entropies will be listed as multiplied by the temperature to get
units of energy

Electronic entropy                ...      0.00000000 Eh      0.00 kcal/mol
Vibrational entropy               ...      0.02126124 Eh     13.34 kcal/mol
Rotational entropy                ...      0.01511286 Eh      9.48 kcal/mol
Translational entropy             ...      0.02065320 Eh     12.96 kcal/mol
-----------------------------------------------------------------------
Final entropy term                ...      0.05702731 Eh     35.79 kcal/mol

In case the symmetry of your molecule has not been determined correctly
or in case you have a reason to use a different symmetry number we print 
out the resulting rotational entropy values for sn=1,12:

 non-linear molecules -----------------------------------
|  sn= 1 | S(rot)=       0.01511286 Eh      9.48 kcal/mol|
|  sn= 2 | S(rot)=       0.01445841 Eh      9.07 kcal/mol|
|  sn= 3 | S(rot)=       0.01407558 Eh      8.83 kcal/mol|
|  sn= 4 | S(rot)=       0.01380395 Eh      8.66 kcal/mol|
|  sn= 5 | S(rot)=       0.01359326 Eh      8.53 kcal/mol|
|  sn= 6 | S(rot)=       0.01342112 Eh      8.42 kcal/mol|
|  sn= 7 | S(rot)=       0.01327557 Eh      8.33 kcal/mol|
|  sn= 8 | S(rot)=       0.01314950 Eh      8.25 kcal/mol|
|  sn= 9 | S(rot)=       0.01303829 Eh      8.18 kcal/mol|
|  sn=10 | S(rot)=       0.01293881 Eh      8.12 kcal/mol|
|  sn=11 | S(rot)=       0.01284882 Eh      8.06 kcal/mol|
|  sn=12 | S(rot)=       0.01276666 Eh      8.01 kcal/mol|
 linear molecules ---------------------------------------
|  Dinfh | S(rot)=       0.00906056 Eh      5.69 kcal/mol|
|  Cinfv | S(rot)=       0.00971502 Eh      6.10 kcal/mol|
 --------------------------------------------------------


-------------------
GIBBS FREE ENERGY
-------------------

The Gibbs free energy is G = H - T*S

Total enthalpy                    ...   -746.65432181 Eh 
Total entropy correction          ...     -0.05702731 Eh    -35.79 kcal/mol
-----------------------------------------------------------------------
Final Gibbs free energy         ...   -746.71134912 Eh

For completeness - the Gibbs free energy minus the electronic energy
G-E(el)                           ...      0.00785163 Eh      4.93 kcal/mol


Maximum memory used throughout the entire PROP-calculation: 57.5 MB

--------------------------------
SUGGESTED CITATIONS FOR THIS RUN
--------------------------------

Below you find a list of papers that are relevant to this ORCA run
We neither can nor want to force you to cite these papers, but we appreciate if you do
You receive ORCA, which is the product of decades of hard work by many enthusiastic individuals, for free
The only thing we kindly ask in return is that you cite our papers,
We deeply appreciate it, if you show your appreciation for ORCA by not just citing the generic ORCA reference.

Please note that relegating all ORCA citations to the supporting information does *not* help us.
SI sections are not indexed - citations you put there will not count into any citation statistics
But we need these citations in order to attract the funding resources that allow us to do what we are doing

Therefore, if you are a happy ORCA user, please consider citing a few of the papers listed below in the main body of your paper

In addition to the list printed below, the program has created the file FRQ_tungsten_hexacarbonyl_f.bibtex that contains the list in bibtex format
You can import this file easily into all common literature databanks and citation aid programs


List of essential papers. We consider these as the minimum necessary citations

  1. Neese,F.
     Software update: the ORCA program system, version 5.0
     WIRES Comput. Molec. Sci., 2022 12(1)e1606
     doi.org/10.1002/wcms.1606

List of papers to cite with high priority. The work reported in these papers was absolutely
necessary for this run to complete.
Our perspective: the developers of density functionals and basis sets usually get cited in chemistry papers
Good! But without the algorithms to do something with them, the functionals or basis sets would not do anything.
Hence, in our opinion, the algorithm design and method developments papers are equally worthy of getting cited

  1. Neese,F.
     An improvement of the resolution of the identity approximation for the formation of the Coulomb matrix
     J. Comp. Chem., 2003 24(14)1740-1747
     doi.org/10.1002/jcc.10318
  2. Neese,F.; Wennmohs,F.; Hansen,A.; Becker,U.
     Efficient, approximate and parallel Hartree-Fock and hybrid DFT calculations. A 'chain-of-spheres' algorithm for the Hartree-Fock exchange
     Chem. Phys., 2009 356(1-3)98-109
     doi.org/10.1016/j.chemphys.2008.10.036
  3. Bykov,D.; Petrenko,T.; Izsak,R.; Kossmann,S.; Becker,U.; Valeev,E.; Neese,F.
     Efficient implementation of the analytic second derivatives of Hartree-Fock and hybrid DFT energies: a detailed analysis of different approximations
     Molec. Phys., 2015 113 1961-1977
     doi.org/10.1080/00268976.2015.1025114
  4. Helmich-Paris,B.; de Souza,B.; Neese,F.; Izsák,R.
     An improved chain of spheres for exchange algorithm
     J. Chem. Phys., 2021 155 104109
     doi.org/doi: 10.1063/5.0058766.
  5. Neese,F.
     The SHARK Integral Generation and Digestion System
     J. Comp. Chem., 2022  1-16
     doi.org/10.1002/jcc.26942

List of suggested additional citations. These are papers that are important in the 'surrounding' of 
of this run, or papers that preceded the highly important papers. If you like your results we are grateful for a citation.

  1. Izsak,R.; Neese,F.
     An overlap fitted chain of spheres exchange method
     J. Chem. Phys., 2011 135 144105
     doi.org/10.1063/1.3646921
  2. Izsak,R.; Hansen,A.; Neese,F.
     The resolution of identity and chain of spheres approximations for the LPNO-CCSD singles Fock term
     Molec. Phys., 2012 110 2413-2417
     doi.org/10.1080/00268976.2012.687466
  3. Neese,F.
     The ORCA program system
     WIRES Comput. Molec. Sci., 2012 2(1)73-78
     doi.org/10.1002/wcms.81
  4. Izsak,R.; Neese,F.; Klopper,W.
     Robust fitting techniques in the chain of spheres approximation to the Fock exchange: The role of the complementary space
     J. Chem. Phys., 2013 139 
     doi.org/10.1063/1.4819264
  5. Neese,F.
     Software update: the ORCA program system, version 4.0
     WIRES Comput. Molec. Sci., 2018 8(1)1-6
     doi.org/10.1002/wcms.1327
  6. Neese,F.; Wennmohs,F.; Becker,U.; Riplinger,C.
     The ORCA quantum chemistry program package
     J. Chem. Phys., 2020 152 Art. No. L224108
     doi.org/10.1063/5.0004608

List of optional additional citations

  1. Neese,F.
     Approximate second-order SCF convergence for spin unrestricted wavefunctions
     Chem. Phys. Lett., 2000 325(1-3)93-98
     doi.org/10.1016/s0009-2614(00)00662-x

Timings for individual modules:

Sum of individual times          ...      325.496 sec (=   5.425 min)
Startup calculation              ...       14.836 sec (=   0.247 min)   4.6 %
SCF iterations                   ...       49.641 sec (=   0.827 min)  15.3 %
Property integrals               ...       46.725 sec (=   0.779 min)  14.4 %
SCF Response                     ...      116.637 sec (=   1.944 min)  35.8 %
Property calculations            ...       97.657 sec (=   1.628 min)  30.0 %
                             ****ORCA TERMINATED NORMALLY****
TOTAL RUN TIME: 0 days 0 hours 5 minutes 49 seconds 369 msec
